# vtk DataFile Version 3.0
#This file was generated by the deal.II library on 2025/2/17 at 12:39:23
ASCII
DATASET UNSTRUCTURED_GRID

POINTS 6144 double
8 0 0
7.93156 1.04421 0
7.96157 0 0.390181
7.89346 1.03919 0.390181
7.96157 0 0.390181
7.89346 1.03919 0.390181
7.84776 0 0.765367
7.78062 1.02434 0.765367
7.84776 0 0.765367
7.78062 1.02434 0.765367
7.66294 0 1.11114
7.59738 1.00021 1.11114
7.66294 0 1.11114
7.59738 1.00021 1.11114
7.41421 0 1.41421
7.35078 0.967749 1.41421
7.41421 0 1.41421
7.35078 0.967749 1.41421
7.11114 0 1.66294
7.0503 0.92819 1.66294
7.11114 0 1.66294
7.0503 0.92819 1.66294
6.76537 0 1.84776
6.70749 0.883058 1.84776
6.76537 0 1.84776
6.70749 0.883058 1.84776
6.39018 0 1.96157
6.33551 0.834086 1.96157
6.39018 0 1.96157
6.33551 0.834086 1.96157
6 0 2
5.94867 0.783157 2
6 0 2
5.94867 0.783157 2
5.60982 0 1.96157
5.56183 0.732228 1.96157
5.60982 0 1.96157
5.56183 0.732228 1.96157
5.23463 0 1.84776
5.18985 0.683257 1.84776
5.23463 0 1.84776
5.18985 0.683257 1.84776
4.88886 0 1.66294
4.84703 0.638124 1.66294
4.88886 0 1.66294
4.84703 0.638124 1.66294
4.58579 0 1.41421
4.54655 0.598565 1.41421
4.58579 0 1.41421
4.54655 0.598565 1.41421
4.33706 0 1.11114
4.29996 0.5661 1.11114
4.33706 0 1.11114
4.29996 0.5661 1.11114
4.15224 0 0.765367
4.11672 0.541976 0.765367
4.15224 0 0.765367
4.11672 0.541976 0.765367
4.03843 0 0.390181
4.00388 0.527121 0.390181
4.03843 0 0.390181
4.00388 0.527121 0.390181
4 0 2.44929e-16
3.96578 0.522105 2.44929e-16
4 0 2.44929e-16
3.96578 0.522105 2.44929e-16
4.03843 0 -0.390181
4.00388 0.527121 -0.390181
4.03843 0 -0.390181
4.00388 0.527121 -0.390181
4.15224 0 -0.765367
4.11672 0.541976 -0.765367
4.15224 0 -0.765367
4.11672 0.541976 -0.765367
4.33706 0 -1.11114
4.29996 0.5661 -1.11114
4.33706 0 -1.11114
4.29996 0.5661 -1.11114
4.58579 0 -1.41421
4.54655 0.598565 -1.41421
4.58579 0 -1.41421
4.54655 0.598565 -1.41421
4.88886 0 -1.66294
4.84703 0.638124 -1.66294
4.88886 0 -1.66294
4.84703 0.638124 -1.66294
5.23463 0 -1.84776
5.18985 0.683257 -1.84776
5.23463 0 -1.84776
5.18985 0.683257 -1.84776
5.60982 0 -1.96157
5.56183 0.732228 -1.96157
5.60982 0 -1.96157
5.56183 0.732228 -1.96157
6 0 -2
5.94867 0.783157 -2
6 0 -2
5.94867 0.783157 -2
6.39018 0 -1.96157
6.33551 0.834086 -1.96157
6.39018 0 -1.96157
6.33551 0.834086 -1.96157
6.76537 0 -1.84776
6.70749 0.883058 -1.84776
6.76537 0 -1.84776
6.70749 0.883058 -1.84776
7.11114 0 -1.66294
7.0503 0.92819 -1.66294
7.11114 0 -1.66294
7.0503 0.92819 -1.66294
7.41421 0 -1.41421
7.35078 0.967749 -1.41421
7.41421 0 -1.41421
7.35078 0.967749 -1.41421
7.66294 0 -1.11114
7.59738 1.00021 -1.11114
7.66294 0 -1.11114
7.59738 1.00021 -1.11114
7.84776 0 -0.765367
7.78062 1.02434 -0.765367
7.84776 0 -0.765367
7.78062 1.02434 -0.765367
7.96157 0 -0.390181
7.89346 1.03919 -0.390181
7.96157 0 -0.390181
7.89346 1.03919 -0.390181
8 0 0
7.93156 1.04421 0
7.93156 1.04421 0
7.72741 2.07055 0
7.89346 1.03919 0.390181
7.69029 2.06061 0.390181
7.89346 1.03919 0.390181
7.69029 2.06061 0.390181
7.78062 1.02434 0.765367
7.58035 2.03115 0.765367
7.78062 1.02434 0.765367
7.58035 2.03115 0.765367
7.59738 1.00021 1.11114
7.40183 1.98331 1.11114
7.59738 1.00021 1.11114
7.40183 1.98331 1.11114
7.35078 0.967749 1.41421
7.16158 1.91894 1.41421
7.35078 0.967749 1.41421
7.16158 1.91894 1.41421
7.0503 0.92819 1.66294
6.86883 1.8405 1.66294
7.0503 0.92819 1.66294
6.86883 1.8405 1.66294
6.70749 0.883058 1.84776
6.53484 1.75101 1.84776
6.70749 0.883058 1.84776
6.53484 1.75101 1.84776
6.33551 0.834086 1.96157
6.17244 1.6539 1.96157
6.33551 0.834086 1.96157
6.17244 1.6539 1.96157
5.94867 0.783157 2
5.79555 1.55291 2
5.94867 0.783157 2
5.79555 1.55291 2
5.56183 0.732228 1.96157
5.41867 1.45193 1.96157
5.56183 0.732228 1.96157
5.41867 1.45193 1.96157
5.18985 0.683257 1.84776
5.05627 1.35482 1.84776
5.18985 0.683257 1.84776
5.05627 1.35482 1.84776
4.84703 0.638124 1.66294
4.72228 1.26533 1.66294
4.84703 0.638124 1.66294
4.72228 1.26533 1.66294
4.54655 0.598565 1.41421
4.42953 1.18689 1.41421
4.54655 0.598565 1.41421
4.42953 1.18689 1.41421
4.29996 0.5661 1.11114
4.18928 1.12251 1.11114
4.29996 0.5661 1.11114
4.18928 1.12251 1.11114
4.11672 0.541976 0.765367
4.01076 1.07468 0.765367
4.11672 0.541976 0.765367
4.01076 1.07468 0.765367
4.00388 0.527121 0.390181
3.90082 1.04522 0.390181
4.00388 0.527121 0.390181
3.90082 1.04522 0.390181
3.96578 0.522105 2.44929e-16
3.8637 1.03528 2.44929e-16
3.96578 0.522105 2.44929e-16
3.8637 1.03528 2.44929e-16
4.00388 0.527121 -0.390181
3.90082 1.04522 -0.390181
4.00388 0.527121 -0.390181
3.90082 1.04522 -0.390181
4.11672 0.541976 -0.765367
4.01076 1.07468 -0.765367
4.11672 0.541976 -0.765367
4.01076 1.07468 -0.765367
4.29996 0.5661 -1.11114
4.18928 1.12251 -1.11114
4.29996 0.5661 -1.11114
4.18928 1.12251 -1.11114
4.54655 0.598565 -1.41421
4.42953 1.18689 -1.41421
4.54655 0.598565 -1.41421
4.42953 1.18689 -1.41421
4.84703 0.638124 -1.66294
4.72228 1.26533 -1.66294
4.84703 0.638124 -1.66294
4.72228 1.26533 -1.66294
5.18985 0.683257 -1.84776
5.05627 1.35482 -1.84776
5.18985 0.683257 -1.84776
5.05627 1.35482 -1.84776
5.56183 0.732228 -1.96157
5.41867 1.45193 -1.96157
5.56183 0.732228 -1.96157
5.41867 1.45193 -1.96157
5.94867 0.783157 -2
5.79555 1.55291 -2
5.94867 0.783157 -2
5.79555 1.55291 -2
6.33551 0.834086 -1.96157
6.17244 1.6539 -1.96157
6.33551 0.834086 -1.96157
6.17244 1.6539 -1.96157
6.70749 0.883058 -1.84776
6.53484 1.75101 -1.84776
6.70749 0.883058 -1.84776
6.53484 1.75101 -1.84776
7.0503 0.92819 -1.66294
6.86883 1.8405 -1.66294
7.0503 0.92819 -1.66294
6.86883 1.8405 -1.66294
7.35078 0.967749 -1.41421
7.16158 1.91894 -1.41421
7.35078 0.967749 -1.41421
7.16158 1.91894 -1.41421
7.59738 1.00021 -1.11114
7.40183 1.98331 -1.11114
7.59738 1.00021 -1.11114
7.40183 1.98331 -1.11114
7.78062 1.02434 -0.765367
7.58035 2.03115 -0.765367
7.78062 1.02434 -0.765367
7.58035 2.03115 -0.765367
7.89346 1.03919 -0.390181
7.69029 2.06061 -0.390181
7.89346 1.03919 -0.390181
7.69029 2.06061 -0.390181
7.93156 1.04421 0
7.72741 2.07055 0
7.72741 2.07055 0
7.39104 3.06147 0
7.69029 2.06061 0.390181
7.35553 3.04676 0.390181
7.69029 2.06061 0.390181
7.35553 3.04676 0.390181
7.58035 2.03115 0.765367
7.25038 3.00321 0.765367
7.58035 2.03115 0.765367
7.25038 3.00321 0.765367
7.40183 1.98331 1.11114
7.07963 2.93248 1.11114
7.40183 1.98331 1.11114
7.07963 2.93248 1.11114
7.16158 1.91894 1.41421
6.84984 2.8373 1.41421
7.16158 1.91894 1.41421
6.84984 2.8373 1.41421
6.86883 1.8405 1.66294
6.56984 2.72132 1.66294
6.86883 1.8405 1.66294
6.56984 2.72132 1.66294
6.53484 1.75101 1.84776
6.25038 2.58899 1.84776
6.53484 1.75101 1.84776
6.25038 2.58899 1.84776
6.17244 1.6539 1.96157
5.90376 2.44542 1.96157
6.17244 1.6539 1.96157
5.90376 2.44542 1.96157
5.79555 1.55291 2
5.54328 2.2961 2
5.79555 1.55291 2
5.54328 2.2961 2
5.41867 1.45193 1.96157
5.1828 2.14678 1.96157
5.41867 1.45193 1.96157
5.1828 2.14678 1.96157
5.05627 1.35482 1.84776
4.83617 2.00321 1.84776
5.05627 1.35482 1.84776
4.83617 2.00321 1.84776
4.72228 1.26533 1.66294
4.51672 1.87089 1.66294
4.72228 1.26533 1.66294
4.51672 1.87089 1.66294
4.42953 1.18689 1.41421
4.23671 1.7549 1.41421
4.42953 1.18689 1.41421
4.23671 1.7549 1.41421
4.18928 1.12251 1.11114
4.00692 1.65972 1.11114
4.18928 1.12251 1.11114
4.00692 1.65972 1.11114
4.01076 1.07468 0.765367
3.83617 1.58899 0.765367
4.01076 1.07468 0.765367
3.83617 1.58899 0.765367
3.90082 1.04522 0.390181
3.73102 1.54544 0.390181
3.90082 1.04522 0.390181
3.73102 1.54544 0.390181
3.8637 1.03528 2.44929e-16
3.69552 1.53073 2.44929e-16
3.8637 1.03528 2.44929e-16
3.69552 1.53073 2.44929e-16
3.90082 1.04522 -0.390181
3.73102 1.54544 -0.390181
3.90082 1.04522 -0.390181
3.73102 1.54544 -0.390181
4.01076 1.07468 -0.765367
3.83617 1.58899 -0.765367
4.01076 1.07468 -0.765367
3.83617 1.58899 -0.765367
4.18928 1.12251 -1.11114
4.00692 1.65972 -1.11114
4.18928 1.12251 -1.11114
4.00692 1.65972 -1.11114
4.42953 1.18689 -1.41421
4.23671 1.7549 -1.41421
4.42953 1.18689 -1.41421
4.23671 1.7549 -1.41421
4.72228 1.26533 -1.66294
4.51672 1.87089 -1.66294
4.72228 1.26533 -1.66294
4.51672 1.87089 -1.66294
5.05627 1.35482 -1.84776
4.83617 2.00321 -1.84776
5.05627 1.35482 -1.84776
4.83617 2.00321 -1.84776
5.41867 1.45193 -1.96157
5.1828 2.14678 -1.96157
5.41867 1.45193 -1.96157
5.1828 2.14678 -1.96157
5.79555 1.55291 -2
5.54328 2.2961 -2
5.79555 1.55291 -2
5.54328 2.2961 -2
6.17244 1.6539 -1.96157
5.90376 2.44542 -1.96157
6.17244 1.6539 -1.96157
5.90376 2.44542 -1.96157
6.53484 1.75101 -1.84776
6.25038 2.58899 -1.84776
6.53484 1.75101 -1.84776
6.25038 2.58899 -1.84776
6.86883 1.8405 -1.66294
6.56984 2.72132 -1.66294
6.86883 1.8405 -1.66294
6.56984 2.72132 -1.66294
7.16158 1.91894 -1.41421
6.84984 2.8373 -1.41421
7.16158 1.91894 -1.41421
6.84984 2.8373 -1.41421
7.40183 1.98331 -1.11114
7.07963 2.93248 -1.11114
7.40183 1.98331 -1.11114
7.07963 2.93248 -1.11114
7.58035 2.03115 -0.765367
7.25038 3.00321 -0.765367
7.58035 2.03115 -0.765367
7.25038 3.00321 -0.765367
7.69029 2.06061 -0.390181
7.35553 3.04676 -0.390181
7.69029 2.06061 -0.390181
7.35553 3.04676 -0.390181
7.72741 2.07055 0
7.39104 3.06147 0
7.39104 3.06147 0
6.9282 4 0
7.35553 3.04676 0.390181
6.89492 3.98079 0.390181
7.35553 3.04676 0.390181
6.89492 3.98079 0.390181
7.25038 3.00321 0.765367
6.79636 3.92388 0.765367
7.25038 3.00321 0.765367
6.79636 3.92388 0.765367
7.07963 2.93248 1.11114
6.6363 3.83147 1.11114
7.07963 2.93248 1.11114
6.6363 3.83147 1.11114
6.84984 2.8373 1.41421
6.4209 3.70711 1.41421
6.84984 2.8373 1.41421
6.4209 3.70711 1.41421
6.56984 2.72132 1.66294
6.15843 3.55557 1.66294
6.56984 2.72132 1.66294
6.15843 3.55557 1.66294
6.25038 2.58899 1.84776
5.85898 3.38268 1.84776
6.25038 2.58899 1.84776
5.85898 3.38268 1.84776
5.90376 2.44542 1.96157
5.53406 3.19509 1.96157
5.90376 2.44542 1.96157
5.53406 3.19509 1.96157
5.54328 2.2961 2
5.19615 3 2
5.54328 2.2961 2
5.19615 3 2
5.1828 2.14678 1.96157
4.85825 2.80491 1.96157
5.1828 2.14678 1.96157
4.85825 2.80491 1.96157
4.83617 2.00321 1.84776
4.53333 2.61732 1.84776
[...]
POINT_DATA 6144
SCALARS phi double 1
LOOKUP_TABLE default
1 0.502585 1092.56 1019.99 1092.56 1019.99 1775.72 1659.52 1775.72 1659.52 1910.17 1787.75 1910.17 1787.75 1643.22 1540.7 1643.22 1540.7 1225.62 1151.48 1225.62 1151.48 840.578 791.347 840.578 791.347 558.148 526.498 558.148 526.498 374.226 353.718 374.226 353.718 259.618 245.963 259.618 245.963 186.854 177.524 186.854 177.524 137.513 131.059 137.513 131.059 100.994 96.5513 100.994 96.5513 71.5818 68.6112 71.5818 68.6112 46.1956 44.3503 46.1956 44.3503 23.0575 22.1242 23.0575 22.1242 1 0.866771 1 0.866771 -20.9034 -20.2624 -20.9034 -20.2624 -43.5806 -42.1101 -43.5806 -42.1101 -68.2148 -65.7694 -68.2148 -65.7694 -96.6373 -92.9523 -96.6373 -92.9523 -132.049 -126.67 -132.049 -126.67 -180.351 -172.481 -180.351 -172.481 -252.367 -240.571 -252.367 -240.571 -366.701 -348.386 -366.701 -348.386 -550.896 -521.627 -550.896 -521.627 -834.075 -787.219 -834.075 -787.219 -1220.16 -1148.2 -1220.16 -1148.2 -1638.86 -1538.23 -1638.86 -1538.23 -1906.8 -1785.93 -1906.8 -1785.93 -1773.1 -1658.16 -1773.1 -1658.16 -1090.4 -1018.89 -1090.4 -1018.89 1 0.502585 0.502585 -0.479211 1019.99 831.143 1019.99 831.143 1659.52 1356.47 1659.52 1356.47 1787.75 1467.65 1787.75 1467.65 1540.7 1271.77 1540.7 1271.77 1151.48 956.341 1151.48 956.341 791.347 661.341 791.347 661.341 526.498 442.628 526.498 442.628 353.718 299.141 353.718 299.141 245.963 209.417 245.963 209.417 177.524 152.38 177.524 152.38 131.059 113.533 131.059 113.533 96.5513 84.4062 96.5513 84.4062 68.6112 60.444 68.6112 60.444 44.3503 39.2581 44.3503 39.2581 22.1242 19.5471 22.1242 19.5471 0.866771 0.510288 0.866771 0.510288 -20.2624 -18.4663 -20.2624 -18.4663 -42.1101 -38.0133 -42.1101 -38.0133 -65.7694 -58.9846 -65.7694 -58.9846 -92.9523 -82.7745 -92.9523 -82.7745 -126.67 -111.89 -126.67 -111.89 -172.481 -150.986 -172.481 -150.986 -240.571 -208.557 -240.571 -208.557 -348.386 -299.006 -348.386 -299.006 -521.627 -443.23 -521.627 -443.23 -787.219 -662.507 -787.219 -662.507 -1148.2 -957.797 -1148.2 -957.797 -1538.23 -1273.26 -1538.23 -1273.26 -1785.93 -1469 -1785.93 -1469 -1658.16 -1357.63 -1658.16 -1357.63 -1018.89 -832.156 -1018.89 -832.156 0.502585 -0.479211 -0.479211 -0.996792 831.143 593.721 831.143 593.721 1356.47 973.783 1356.47 973.783 1467.65 1061.3 1467.65 1061.3 1271.77 928.26 1271.77 928.26 956.341 705.412 956.341 705.412 661.341 493.062 661.341 493.062 442.628 333.334 442.628 333.334 299.141 227.437 299.141 227.437 209.417 160.875 209.417 160.875 152.38 118.525 152.38 118.525 113.533 89.5871 113.533 89.5871 84.4062 67.5808 84.4062 67.5808 60.444 49.0012 60.444 49.0012 39.2581 32.0706 39.2581 32.0706 19.5471 15.9065 19.5471 15.9065 0.510288 0.0400519 0.510288 0.0400519 -18.4663 -15.8519 -18.4663 -15.8519 -38.0133 -32.1182 -38.0133 -32.1182 -58.9846 -49.3002 -58.9846 -49.3002 -82.7745 -68.3783 -82.7745 -68.3783 -111.89 -91.2024 -111.89 -91.2024 -150.986 -121.251 -150.986 -121.251 -208.557 -164.825 -208.557 -164.825 -299.006 -232.428 -299.006 -232.428 -443.23 -338.897 -443.23 -338.897 -662.507 -498.597 -662.507 -498.597 -957.797 -710.401 -957.797 -710.401 -1273.26 -932.416 -1273.26 -932.416 -1469 -1064.59 -1469 -1064.59 -1357.63 -976.373 -1357.63 -976.373 -832.156 -595.865 -832.156 -595.865 -0.479211 -0.996792 -0.996792 -0.653644 593.721 374.519 593.721 374.519 973.783 618.244 973.783 618.244 1061.3 680.807 1061.3 680.807 928.26 603.563 928.26 603.563 705.412 465.85 705.412 465.85 493.062 330.852 493.062 330.852 333.334 226.984 333.334 226.984 227.437 156.882 227.437 156.882 160.875 112.377 160.875 112.377 118.525 84.0275 118.525 84.0275 89.5871 64.6475 89.5871 64.6475 67.5808 49.6913 67.5808 49.6913 49.0012 36.6275 49.0012 36.6275 32.0706 24.212 32.0706 24.212 15.9065 11.9223 15.9065 11.9223 0.0400519 -0.416147 0.0400519 -0.416147 -15.8519 -12.8562 -15.8519 -12.8562 -32.1182 -25.4779 -32.1182 -25.4779 -49.3002 -38.5224 -49.3002 -38.5224 -68.3783 -52.5707 -68.3783 -52.5707 -91.2024 -68.8368 -91.2024 -68.8368 -121.251 -89.6572 -121.251 -89.6572 -164.825 -119.221 -164.825 -119.221 -232.428 -164.331 -232.428 -164.331 -338.897 -234.225 -338.897 -234.225 -498.597 -337.167 -498.597 -337.167 -710.401 -470.853 -710.401 -470.853 -932.416 -607.241 -932.416 -607.241 -1064.59 -683.404 -1064.59 -683.404 -976.373 -620.099 -976.373 -620.099 -595.865 -375.958 -595.865 -375.958 -0.996792 -0.653644 -0.653644 0.15705 374.519 210.741 374.519 210.741 618.244 350.525 618.244 350.525 680.807 391.296 680.807 391.296 603.563 353.359 603.563 353.359 465.85 278.758 465.85 278.758 330.852 202.572 330.852 202.572 226.984 141.917 226.984 141.917 156.882 99.7243 156.882 99.7243 112.377 72.3707 112.377 72.3707 84.0275 54.8554 84.0275 54.8554 64.6475 42.9482 64.6475 42.9482 49.6913 33.6923 49.6913 33.6923 36.6275 25.3089 36.6275 25.3089 24.212 16.9177 24.212 16.9177 11.9223 8.22183 11.9223 8.22183 -0.416147 -0.760608 -0.416147 -0.760608 -12.8562 -9.89258 -12.8562 -9.89258 -25.4779 -19.0552 -25.4779 -19.0552 -38.5224 -28.2616 -38.5224 -28.2616 -52.5707 -37.7846 -52.5707 -37.7846 -68.8368 -48.338 -68.8368 -48.338 -89.6572 -61.352 -89.6572 -61.352 -119.221 -79.3524 -119.221 -79.3524 -164.331 -106.288 -164.331 -106.288 -234.225 -147.23 -234.225 -147.23 -337.167 -206.211 -337.167 -206.211 -470.853 -280.802 -470.853 -280.802 -607.241 -354.22 -607.241 -354.22 -683.404 -391.456 -683.404 -391.456 -620.099 -350.355 -620.099 -350.355 -375.958 -210.452 -375.958 -210.452 -0.653644 0.15705 0.15705 0.810184 210.741 107.13 210.741 107.13 350.525 179.669 350.525 179.669 391.296 204.105 391.296 204.105 353.359 188.935 353.359 188.935 278.758 153.67 278.758 153.67 202.572 115.459 202.572 115.459 141.917 83.4189 141.917 83.4189 99.7243 59.9345 99.7243 59.9345 72.3707 44.0068 72.3707 44.0068 54.8554 33.5853 54.8554 33.5853 42.9482 26.5707 42.9482 26.5707 33.6923 21.1958 33.6923 21.1958 25.3089 16.2143 25.3089 16.2143 16.9177 10.9491 16.9177 10.9491 8.22183 5.19519 8.22183 5.19519 -0.760608 -0.951363 -0.760608 -0.951363 -9.89258 -7.26187 -9.89258 -7.26187 -19.0552 -13.509 -19.0552 -13.509 -28.2616 -19.5719 -28.2616 -19.5719 -37.7846 -25.5299 -37.7846 -25.5299 -48.338 -31.7656 -48.338 -31.7656 -61.352 -39.0956 -61.352 -39.0956 -79.3524 -48.9263 -79.3524 -48.9263 -106.288 -63.3405 -106.288 -63.3405 -147.23 -84.8157 -147.23 -84.8157 -206.211 -114.994 -206.211 -114.994 -280.802 -151.972 -280.802 -151.972 -354.22 -186.732 -354.22 -186.732 -391.456 -201.92 -391.456 -201.92 -350.355 -177.727 -350.355 -177.727 -210.452 -105.419 -210.452 -105.419 0.15705 0.810184 0.810184 0.997976 107.13 49.903 107.13 49.903 179.669 84.4488 179.669 84.4488 204.105 98.1118 204.105 98.1118 188.935 93.91 188.935 93.91 153.67 79.7717 153.67 79.7717 115.459 62.9893 115.459 62.9893 83.4189 47.7148 83.4189 47.7148 59.9345 35.4274 59.9345 35.4274 44.0068 26.2847 44.0068 26.2847 33.5853 19.9166 33.5853 19.9166 26.5707 15.623 26.5707 15.623 21.1958 12.4919 21.1958 12.4919 16.2143 9.65883 16.2143 9.65883 10.9491 6.55252 10.9491 6.55252 5.19519 2.97067 5.19519 2.97067 -0.951363 -0.999494 -0.951363 -0.999494 -7.26187 -5.12067 -7.26187 -5.12067 -13.509 -9.13708 -13.509 -9.13708 -19.5719 -12.8762 -19.5719 -12.8762 -25.5299 -16.3221 -25.5299 -16.3221 -31.7656 -19.6693 -31.7656 -19.6693 -39.0956 -23.3681 -39.0956 -23.3681 -48.9263 -28.1615 -48.9263 -28.1615 -63.3405 -35.0684 -63.3405 -35.0684 -84.8157 -45.1788 -84.8157 -45.1788 -114.994 -59.0282 -114.994 -59.0282 -151.972 -75.3937 -151.972 -75.3937 -186.732 -89.8994 -186.732 -89.8994 -201.92 -94.8144 -201.92 -94.8144 -177.727 -81.8381 -177.727 -81.8381 -105.419 -47.75 -105.419 -47.75 0.810184 0.997976 0.997976 0.799089 49.903 21.5808 49.903 21.5808 84.4488 36.9261 84.4488 36.9261 98.1118 44.1926 98.1118 44.1926 93.91 44.3117 93.91 44.3117 79.7717 40.0931 79.7717 40.0931 62.9893 34.1105 62.9893 34.1105 47.7148 27.7789 47.7148 27.7789 35.4274 21.7005 35.4274 21.7005 26.2847 16.3132 26.2847 16.3132 19.9166 12.0467 19.9166 12.0467 15.623 9.04626 15.623 9.04626 12.4919 7.00589 12.4919 7.00589 9.65883 5.35545 9.65883 5.35545 6.55252 3.59236 6.55252 3.59236 2.97067 1.48026 2.97067 1.48026 -0.999494 -0.948443 -0.999494 -0.948443 -5.12067 -3.49953 -5.12067 -3.49953 -9.13708 -5.94201 -9.13708 -5.94201 -12.8762 -8.10667 -12.8762 -8.10667 -16.3221 -9.9465 -16.3221 -9.9465 -19.6693 -11.5624 -19.6693 -11.5624 -23.3681 -13.2049 -23.3681 -13.2049 -28.1615 -15.2594 -28.1615 -15.2594 -35.0684 -18.2008 -35.0684 -18.2008 -45.1788 -22.4691 -45.1788 -22.4691 -59.0282 -28.1838 -59.0282 -28.1838 -75.3937 -34.6712 -75.3937 -34.6712 -89.8994 -39.9966 -89.8994 -39.9966 -94.8144 -41.0333 -94.8144 -41.0333 -81.8381 -34.648 -81.8381 -34.648 -47.75 -19.8173 -47.75 -19.8173 0.997976 0.799089 0.799089 0.446585 21.5808 8.71159 21.5808 8.71159 36.9261 15.1802 36.9261 15.1802 44.1926 18.9497 44.1926 18.9497 44.3117 20.3311 44.3117 20.3311 40.0931 20.1954 40.0931 20.1954 34.1105 19.1511 34.1105 19.1511 27.7789 17.2705 27.7789 17.2705 21.7005 14.4912 21.7005 14.4912 16.3132 11.135 16.3132 11.135 12.0467 7.91376 12.0467 7.91376 9.04626 5.44094 9.04626 5.44094 7.00589 3.82853 7.00589 3.82853 5.35545 2.74242 5.35545 2.74242 3.59236 1.74218 3.59236 1.74218 1.48026 0.555907 1.48026 0.555907 -0.948443 -0.850466 -0.948443 -0.850466 -3.49953 -2.34659 -3.49953 -2.34659 -5.94201 -3.7513 -5.94201 -3.7513 -8.10667 -4.92555 -8.10667 -4.92555 -9.9465 -5.82348 -9.9465 -5.82348 -11.5624 -6.50336 -11.5624 -6.50336 -13.2049 -7.11084 -13.2049 -7.11084 -15.2594 -7.84846 -15.2594 -7.84846 -18.2008 -8.93425 -18.2008 -8.93425 -22.4691 -10.5351 -22.4691 -10.5351 -28.1838 -12.6514 -28.1838 -12.6514 -34.6712 -14.954 -34.6712 -14.954 -39.9966 -16.6556 -39.9966 -16.6556 -41.0333 -16.5953 -41.0333 -16.5953 -34.648 -13.696 -34.648 -13.696 -19.8173 -7.68175 -19.8173 -7.68175 0.799089 0.446585 0.446585 0.126237 8.71159 3.22681 8.71159 3.22681 15.1802 5.86205 15.1802 5.86205 18.9497 7.83976 18.9497 7.83976 20.3311 9.35622 20.3311 9.35622 20.1954 10.6687 20.1954 10.6687 19.1511 11.6866 19.1511 11.6866 17.2705 11.9002 17.2705 11.9002 14.4912 10.8245 14.4912 10.8245 11.135 8.56411 11.135 8.56411 7.91376 5.86771 7.91376 5.86771 5.44094 3.58138 5.44094 3.58138 3.82853 2.08876 3.82853 2.08876 2.74242 1.23603 2.74242 1.23603 1.74218 0.641642 1.74218 0.641642 0.555907 0.0101979 0.555907 0.0101979 -0.850466 -0.750412 -0.850466 -0.750412 -2.34659 -1.57277 -2.34659 -1.57277 -3.7513 -2.3295 -3.7513 -2.3295 -4.92555 -2.9181 -4.92555 -2.9181 -5.82348 -3.30464 -5.82348 -3.30464 -6.50336 -3.52735 -6.50336 -3.52735 -7.11084 -3.67523 -7.11084 -3.67523 -7.84846 -3.85807 -7.84846 -3.85807 -8.93425 -4.17707 -8.93425 -4.17707 -10.5351 -4.69349 -10.5351 -4.69349 -12.6514 -5.38824 -12.6514 -5.38824 -14.954 -6.11497 -14.954 -6.11497 -16.6556 -6.57517 -16.6556 -6.57517 -16.5953 -6.36871 -16.5953 -6.36871 -13.696 -5.15542 -13.696 -5.15542 -7.68175 -2.87575 -7.68175 -2.87575 0.446585 0.126237 0.126237 -0.0774995 3.22681 1.01694 3.22681 1.01694 5.86205 2.0872 5.86205 2.0872 7.83976 3.20764 7.83976 3.20764 9.35622 4.58334 9.35622 4.58334 10.6687 6.31659 10.6687 6.31659 11.6866 8.10902 11.6866 8.10902 11.9002 9.22987 11.9002 9.22987 10.8245 8.96935 10.8245 8.96935 8.56411 7.26226 8.56411 7.26226 5.86771 4.82081 5.86771 4.82081 3.58138 2.59298 3.58138 2.59298 2.08876 1.11825 2.08876 1.11825 1.23603 0.360885 1.23603 0.360885 0.641642 -0.0149625 0.641642 -0.0149625 0.0101979 -0.316908 0.0101979 -0.316908 -0.750412 -0.679154 -0.750412 -0.679154 -1.57277 -1.08482 -1.57277 -1.08482 -2.3295 -1.45219 -2.3295 -1.45219 -2.9181 -1.71051 -2.9181 -1.71051 -3.30464 -1.83738 -3.30464 -1.83738 -3.52735 -1.85945 -3.52735 -1.85945 -3.67523 -1.83243 -3.67523 -1.83243 -3.85807 -1.81732 -3.85807 -1.81732 -4.17707 -1.86205 -4.17707 -1.86205 -4.69349 -1.98867 -4.69349 -1.98867 -5.38824 -2.18251 -5.38824 -2.18251 -6.11497 -2.38271 -6.11497 -2.38271 -6.57517 -2.48258 -6.57517 -2.48258 -6.36871 -2.35312 -6.36871 -2.35312 -5.15542 -1.89553 -5.15542 -1.89553 -2.87575 -1.10196 -2.87575 -1.10196 0.126237 -0.0774995 -0.0774995 -0.1455 1.01694 0.221726 1.01694 0.221726 2.0872 0.706179 2.0872 0.706179 3.20764 1.47303 3.20764 1.47303 4.58334 2.7389 4.58334 2.7389 6.31659 4.56354 6.31659 4.56354 8.10902 6.58398 8.10902 6.58398 9.22987 7.99444 9.22987 7.99444 8.96935 8.00405 8.96935 8.00405 7.26226 6.48307 7.26226 6.48307 4.82081 4.12723 4.82081 4.12723 2.59298 1.92178 2.59298 1.92178 1.11825 0.468408 1.11825 0.468408 0.360885 -0.217393 0.360885 -0.217393 -0.0149625 -0.449403 -0.0149625 -0.449403 -0.316908 -0.541572 -0.316908 -0.541572 -0.679154 -0.653644 -0.679154 -0.653644 -1.08482 -0.80282 -1.08482 -0.80282 -1.45219 -0.939948 -1.45219 -0.939948 -1.71051 -1.01688 -1.71051 -1.01688 -1.83738 -1.01846 -1.83738 -1.01846 -1.85945 -0.962476 -1.85945 -0.962476 -1.83243 -0.88328 -1.83243 -0.88328 -1.81732 -0.814674 -1.81732 -0.814674 -1.86205 -0.779352 -1.86205 -0.779352 -1.98867 -0.784781 -1.98867 -0.784781 -2.18251 -0.822268 -2.18251 -0.822268 -2.38271 -0.867528 -2.38271 -0.867528 -2.48258 -0.884264 -2.48258 -0.884264 -2.35312 -0.833699 -2.35312 -0.833699 -1.89553 -0.689907 -1.89553 -0.689907 -1.10196 -0.453046 -1.10196 -0.453046 -0.0774995 -0.1455 -0.1455 -0.0774995 0.221726 0.0762454 0.221726 0.0762454 0.706179 0.406309 0.706179 0.406309 1.47303 1.1006 1.47303 1.1006 2.7389 2.35882 2.7389 2.35882 4.56354 4.19099 4.56354 4.19099 6.58398 6.18065 6.58398 6.18065 7.99444 7.50229 7.99444 7.50229 8.00405 7.39499 8.00405 7.39499 6.48307 5.78392 6.48307 5.78392 4.12723 3.40168 4.12723 3.40168 1.92178 1.23413 1.92178 1.23413 0.468408 -0.136121 0.468408 -0.136121 -0.217393 -0.70887 -0.217393 -0.70887 -0.449403 -0.803235 -0.449403 -0.803235 -0.541572 -0.736724 -0.541572 -0.736724 -0.653644 -0.679154 -0.653644 -0.679154 -0.80282 -0.665007 -0.80282 -0.665007 -0.939948 -0.663918 -0.939948 -0.663918 -1.01688 -0.640757 -1.01688 -0.640757 -1.01846 -0.583008 -1.01846 -0.583008 -0.962476 -0.500592 -0.962476 -0.500592 -0.88328 -0.413309 -0.88328 -0.413309 -0.814674 -0.338982 -0.814674 -0.338982 -0.779352 -0.28768 -0.779352 -0.28768 -0.784781 -0.261089 -0.784781 -0.261089 -0.822268 -0.254142 -0.822268 -0.254142 -0.867528 -0.25711 -0.867528 -0.25711 -0.884264 -0.258051 -0.884264 -0.258051 -0.833699 -0.24608 -0.833699 -0.24608 -0.689907 -0.214645 -0.689907 -0.214645 -0.453046 -0.161263 -0.453046 -0.161263 -0.1455 -0.0774995 -0.0774995 0.126237 0.0762454 0.289188 0.0762454 0.289188 0.406309 0.671814 0.406309 0.671814 1.1006 1.45056 1.1006 1.45056 2.35882 2.77081 2.35882 2.77081 4.19099 4.55383 4.19099 4.55383 6.18065 6.31269 6.18065 6.31269 7.50229 7.24381 7.50229 7.24381 7.39499 6.72026 7.39499 6.72026 5.78392 4.83123 5.78392 4.83123 3.40168 2.38752 3.40168 2.38752 1.23413 0.333099 1.23413 0.333099 -0.136121 -0.846583 -0.136121 -0.846583 -0.70887 -1.22594 -0.70887 -1.22594 -0.803235 -1.15108 -0.803235 -1.15108 -0.736724 -0.937807 -0.736724 -0.937807 -0.679154 -0.750412 -0.679154 -0.750412 -0.665007 -0.624763 -0.665007 -0.624763 -0.663918 -0.536774 -0.663918 -0.536774 -0.640757 -0.456132 -0.640757 -0.456132 -0.583008 -0.36929 -0.583008 -0.36929 -0.500592 -0.279075 -0.500592 -0.279075 -0.413309 -0.195031 -0.413309 -0.195031 -0.338982 -0.125194 -0.338982 -0.125194 -0.28768 -0.0728735 -0.28768 -0.0728735 -0.261089 -0.037105 -0.261089 -0.037105 -0.254142 -0.0143574 -0.254142 -0.0143574 -0.25711 -7.6916e-05 -0.25711 -7.6916e-05 -0.258051 0.0102356 -0.258051 0.0102356 -0.24608 0.0204917 -0.24608 0.0204917 -0.214645 0.0348146 -0.214645 0.0348146 -0.161263 0.0618681 -0.161263 0.0618681 -0.0774995 0.126237 0.126237 0.446585 0.289188 0.724291 0.289188 0.724291 0.671814 1.25462 0.671814 1.25462 1.45056 2.17193 1.45056 2.17193 2.77081 3.52822 2.77081 3.52822 4.55383 5.12507 4.55383 5.12507 6.31269 6.4144 6.31269 6.4144 7.24381 6.68492 7.24381 6.68492 6.72026 5.54856 6.72026 5.54856 4.83123 3.33088 4.83123 3.33088 2.38752 0.913222 2.38752 0.913222 0.333099 -0.87222 0.333099 -0.87222 -0.846583 -1.71281 -0.846583 -1.71281 -1.22594 -1.79924 -1.22594 -1.79924 -1.15108 -1.51031 -1.15108 -1.51031 -0.937807 -1.14688 -0.937807 -1.14688 -0.750412 -0.850466 -0.750412 -0.850466 -0.624763 -0.643806 -0.624763 -0.643806 -0.536774 -0.498818 -0.536774 -0.498818 -0.456132 -0.38389 -0.456132 -0.38389 -0.36929 -0.282141 -0.36929 -0.282141 -0.279075 -0.190193 -0.279075 -0.190193 -0.195031 -0.110304 -0.195031 -0.110304 -0.125194 -0.0443058 -0.125194 -0.0443058 -0.0728735 0.00842794 -0.0728735 0.00842794 -0.037105 0.0504799 -0.037105 0.0504799 -0.0143574 0.0852714 -0.0143574 0.0852714 -7.6916e-05 0.116336 -7.6916e-05 0.116336 0.0102356 0.147251 0.0102356 0.147251 0.0204917 0.182446 0.0204917 0.182446 0.0348146 0.229648 0.0348146 0.229648 0.0618681 0.305547 0.0618681 0.305547 0.126237 0.446585 0.446585 0.799089 0.724291 1.21645 0.724291 1.21645 1.25462 1.88656 1.25462 1.88656 2.17193 2.86982 2.17193 2.86982 3.52822 4.09856 3.52822 4.09856 5.12507 5.26224 5.12507 5.26224 6.4144 5.81581 6.4144 5.81581 6.68492 5.24477 6.68492 5.24477 5.54856 3.48203 5.54856 3.48203 3.33088 1.08939 3.33088 1.08939 0.913222 -1.05998 0.913222 -1.05998 -0.87222 -2.34242 -0.87222 -2.34242 -1.71281 -2.67676 -1.71281 -2.67676 -1.79924 -2.37976 -1.79924 -2.37976 -1.51031 -1.84479 -1.51031 -1.84479 -1.14688 -1.33423 -1.14688 -1.33423 -0.850466 -0.948443 -0.850466 -0.948443 -0.643806 -0.685035 -0.643806 -0.685035 -0.498818 -0.504858 -0.498818 -0.504858 -0.38389 -0.371457 -0.38389 -0.371457 -0.282141 -0.263845 -0.282141 -0.263845 -0.190193 -0.173702 -0.190193 -0.173702 -0.110304 -0.0982846 -0.110304 -0.0982846 -0.0443058 -0.0355102 -0.0443058 -0.0355102 0.00842794 0.0176751 0.00842794 0.0176751 0.0504799 0.0651117 0.0504799 0.0651117 0.0852714 0.11096 0.0852714 0.11096 0.116336 0.159664 0.116336 0.159664 0.147251 0.216567 0.147251 0.216567 0.182446 0.289445 0.182446 0.289445 0.229648 0.391553 0.229648 0.391553 0.305547 0.547072 0.305547 0.547072 0.446585 0.799089 0.799089 0.997976 1.21645 1.47942 1.21645 1.47942 1.88656 2.15211 1.88656 2.15211 2.86982 2.98341 2.86982 2.98341 4.09856 3.79763 4.09856 3.79763 5.26224 4.23916 5.26224 4.23916 5.81581 3.88081 5.81581 3.88081 5.24477 2.50565 5.24477 2.50565 3.48203 0.376127 3.48203 0.376127 1.08939 -1.81007 1.08939 -1.81007 -1.05998 -3.32813 -1.05998 -3.32813 -2.34242 -3.85515 -2.34242 -3.85515 -2.67676 -3.55592 -2.67676 -3.55592 -2.37976 -2.83889 -2.37976 -2.83889 -1.84479 -2.06949 -1.84479 -2.06949 -1.33423 -1.44183 -1.33423 -1.44183 -0.948443 -0.999494 -0.948443 -0.999494 -0.685035 -0.708167 -0.685035 -0.708167 -0.504858 -0.515071 -0.504858 -0.515071 -0.371457 -0.378495 -0.371457 -0.378495 -0.263845 -0.274325 -0.263845 -0.274325 -0.173702 -0.191155 -0.173702 -0.191155 -0.0982846 -0.123376 -0.0982846 -0.123376 -0.0355102 -0.0667992 -0.0355102 -0.0667992 0.0176751 -0.0171158 0.0176751 -0.0171158 0.0651117 0.0302828 0.0651117 0.0302828 0.11096 0.0803405 0.11096 0.0803405 0.159664 0.138763 0.159664 0.138763 0.216567 0.212996 0.216567 0.212996 0.289445 0.313931 0.289445 0.313931 0.391553 0.458572 0.391553 0.458572 0.547072 0.673575 0.547072 0.673575 0.799089 0.997976 0.997976 0.810184 1.47942 1.17424 1.47942 1.17424 2.15211 1.59894 2.15211 1.59894 2.98341 1.97519 2.98341 1.97519 3.79763 2.0855 3.79763 2.0855 4.23916 1.64549 4.23916 1.64549 3.88081 0.461037 3.88081 0.461037 2.50565 -1.35966 2.50565 -1.35966 0.376127 -3.33168 0.376127 -3.33168 -1.81007 -4.80659 -1.81007 -4.80659 -3.32813 -5.35308 -3.32813 -5.35308 -3.85515 -4.98328 -3.85515 -4.98328 -3.55592 -4.05369 -3.55592 -4.05369 -2.83889 -2.98758 -2.83889 -2.98758 -2.06949 -2.06777 -2.06949 -2.06777 -1.44183 -1.39537 -1.44183 -1.39537 -0.999494 -0.951363 -0.999494 -0.951363 -0.708167 -0.671318 -0.708167 -0.671318 -0.515071 -0.492144 -0.515071 -0.492144 -0.378495 -0.37 -0.378495 -0.37 -0.274325 -0.280459 -0.274325 -0.280459 -0.191155 -0.211624 -0.191155 -0.211624 -0.123376 -0.157278 -0.123376 -0.157278 -0.0667992 -0.112923 -0.0667992 -0.112923 -0.0171158 -0.0743274 -0.0171158 -0.0743274 0.0302828 -0.0371748 0.0302828 -0.0371748 0.0803405 0.00320477 0.0803405 0.00320477 0.138763 0.052384 0.138763 0