# vtk DataFile Version 3.0
#This file was generated by the deal.II library on 2025/2/17 at 12:37:41
ASCII
DATASET UNSTRUCTURED_GRID

POINTS 1536 double
8 0 0
7.72741 2.07055 0
7.84776 0 0.765367
7.58035 2.03115 0.765367
7.84776 0 0.765367
7.58035 2.03115 0.765367
7.41421 0 1.41421
7.16158 1.91894 1.41421
7.41421 0 1.41421
7.16158 1.91894 1.41421
6.76537 0 1.84776
6.53484 1.75101 1.84776
6.76537 0 1.84776
6.53484 1.75101 1.84776
6 0 2
5.79555 1.55291 2
6 0 2
5.79555 1.55291 2
5.23463 0 1.84776
5.05627 1.35482 1.84776
5.23463 0 1.84776
5.05627 1.35482 1.84776
4.58579 0 1.41421
4.42953 1.18689 1.41421
4.58579 0 1.41421
4.42953 1.18689 1.41421
4.15224 0 0.765367
4.01076 1.07468 0.765367
4.15224 0 0.765367
4.01076 1.07468 0.765367
4 0 2.44929e-16
3.8637 1.03528 2.44929e-16
4 0 2.44929e-16
3.8637 1.03528 2.44929e-16
4.15224 0 -0.765367
4.01076 1.07468 -0.765367
4.15224 0 -0.765367
4.01076 1.07468 -0.765367
4.58579 0 -1.41421
4.42953 1.18689 -1.41421
4.58579 0 -1.41421
4.42953 1.18689 -1.41421
5.23463 0 -1.84776
5.05627 1.35482 -1.84776
5.23463 0 -1.84776
5.05627 1.35482 -1.84776
6 0 -2
5.79555 1.55291 -2
6 0 -2
5.79555 1.55291 -2
6.76537 0 -1.84776
6.53484 1.75101 -1.84776
6.76537 0 -1.84776
6.53484 1.75101 -1.84776
7.41421 0 -1.41421
7.16158 1.91894 -1.41421
7.41421 0 -1.41421
7.16158 1.91894 -1.41421
7.84776 0 -0.765367
7.58035 2.03115 -0.765367
7.84776 0 -0.765367
7.58035 2.03115 -0.765367
8 0 0
7.72741 2.07055 0
7.72741 2.07055 0
6.9282 4 0
7.58035 2.03115 0.765367
6.79636 3.92388 0.765367
7.58035 2.03115 0.765367
6.79636 3.92388 0.765367
7.16158 1.91894 1.41421
6.4209 3.70711 1.41421
7.16158 1.91894 1.41421
6.4209 3.70711 1.41421
6.53484 1.75101 1.84776
5.85898 3.38268 1.84776
6.53484 1.75101 1.84776
5.85898 3.38268 1.84776
5.79555 1.55291 2
5.19615 3 2
5.79555 1.55291 2
5.19615 3 2
5.05627 1.35482 1.84776
4.53333 2.61732 1.84776
5.05627 1.35482 1.84776
4.53333 2.61732 1.84776
4.42953 1.18689 1.41421
3.97141 2.29289 1.41421
4.42953 1.18689 1.41421
3.97141 2.29289 1.41421
4.01076 1.07468 0.765367
3.59595 2.07612 0.765367
4.01076 1.07468 0.765367
3.59595 2.07612 0.765367
3.8637 1.03528 2.44929e-16
3.4641 2 2.44929e-16
3.8637 1.03528 2.44929e-16
3.4641 2 2.44929e-16
4.01076 1.07468 -0.765367
3.59595 2.07612 -0.765367
4.01076 1.07468 -0.765367
3.59595 2.07612 -0.765367
4.42953 1.18689 -1.41421
3.97141 2.29289 -1.41421
4.42953 1.18689 -1.41421
3.97141 2.29289 -1.41421
5.05627 1.35482 -1.84776
4.53333 2.61732 -1.84776
5.05627 1.35482 -1.84776
4.53333 2.61732 -1.84776
5.79555 1.55291 -2
5.19615 3 -2
5.79555 1.55291 -2
5.19615 3 -2
6.53484 1.75101 -1.84776
5.85898 3.38268 -1.84776
6.53484 1.75101 -1.84776
5.85898 3.38268 -1.84776
7.16158 1.91894 -1.41421
6.4209 3.70711 -1.41421
7.16158 1.91894 -1.41421
6.4209 3.70711 -1.41421
7.58035 2.03115 -0.765367
6.79636 3.92388 -0.765367
7.58035 2.03115 -0.765367
6.79636 3.92388 -0.765367
7.72741 2.07055 0
6.9282 4 0
6.9282 4 0
5.65685 5.65685 0
6.79636 3.92388 0.765367
5.5492 5.5492 0.765367
6.79636 3.92388 0.765367
5.5492 5.5492 0.765367
6.4209 3.70711 1.41421
5.24264 5.24264 1.41421
6.4209 3.70711 1.41421
5.24264 5.24264 1.41421
5.85898 3.38268 1.84776
4.78384 4.78384 1.84776
5.85898 3.38268 1.84776
4.78384 4.78384 1.84776
5.19615 3 2
4.24264 4.24264 2
5.19615 3 2
4.24264 4.24264 2
4.53333 2.61732 1.84776
3.70144 3.70144 1.84776
4.53333 2.61732 1.84776
3.70144 3.70144 1.84776
3.97141 2.29289 1.41421
3.24264 3.24264 1.41421
3.97141 2.29289 1.41421
3.24264 3.24264 1.41421
3.59595 2.07612 0.765367
2.93608 2.93608 0.765367
3.59595 2.07612 0.765367
2.93608 2.93608 0.765367
3.4641 2 2.44929e-16
2.82843 2.82843 2.44929e-16
3.4641 2 2.44929e-16
2.82843 2.82843 2.44929e-16
3.59595 2.07612 -0.765367
2.93608 2.93608 -0.765367
3.59595 2.07612 -0.765367
2.93608 2.93608 -0.765367
3.97141 2.29289 -1.41421
3.24264 3.24264 -1.41421
3.97141 2.29289 -1.41421
3.24264 3.24264 -1.41421
4.53333 2.61732 -1.84776
3.70144 3.70144 -1.84776
4.53333 2.61732 -1.84776
3.70144 3.70144 -1.84776
5.19615 3 -2
4.24264 4.24264 -2
5.19615 3 -2
4.24264 4.24264 -2
5.85898 3.38268 -1.84776
4.78384 4.78384 -1.84776
5.85898 3.38268 -1.84776
4.78384 4.78384 -1.84776
6.4209 3.70711 -1.41421
5.24264 5.24264 -1.41421
6.4209 3.70711 -1.41421
5.24264 5.24264 -1.41421
6.79636 3.92388 -0.765367
5.5492 5.5492 -0.765367
6.79636 3.92388 -0.765367
5.5492 5.5492 -0.765367
6.9282 4 0
5.65685 5.65685 0
5.65685 5.65685 0
4 6.9282 0
5.5492 5.5492 0.765367
3.92388 6.79636 0.765367
5.5492 5.5492 0.765367
3.92388 6.79636 0.765367
5.24264 5.24264 1.41421
3.70711 6.4209 1.41421
5.24264 5.24264 1.41421
3.70711 6.4209 1.41421
4.78384 4.78384 1.84776
3.38268 5.85898 1.84776
4.78384 4.78384 1.84776
3.38268 5.85898 1.84776
4.24264 4.24264 2
3 5.19615 2
4.24264 4.24264 2
3 5.19615 2
3.70144 3.70144 1.84776
2.61732 4.53333 1.84776
3.70144 3.70144 1.84776
2.61732 4.53333 1.84776
3.24264 3.24264 1.41421
2.29289 3.97141 1.41421
3.24264 3.24264 1.41421
2.29289 3.97141 1.41421
2.93608 2.93608 0.765367
2.07612 3.59595 0.765367
2.93608 2.93608 0.765367
2.07612 3.59595 0.765367
2.82843 2.82843 2.44929e-16
2 3.4641 2.44929e-16
2.82843 2.82843 2.44929e-16
2 3.4641 2.44929e-16
2.93608 2.93608 -0.765367
2.07612 3.59595 -0.765367
2.93608 2.93608 -0.765367
2.07612 3.59595 -0.765367
3.24264 3.24264 -1.41421
2.29289 3.97141 -1.41421
3.24264 3.24264 -1.41421
2.29289 3.97141 -1.41421
3.70144 3.70144 -1.84776
2.61732 4.53333 -1.84776
3.70144 3.70144 -1.84776
2.61732 4.53333 -1.84776
4.24264 4.24264 -2
3 5.19615 -2
4.24264 4.24264 -2
3 5.19615 -2
4.78384 4.78384 -1.84776
3.38268 5.85898 -1.84776
4.78384 4.78384 -1.84776
3.38268 5.85898 -1.84776
5.24264 5.24264 -1.41421
3.70711 6.4209 -1.41421
5.24264 5.24264 -1.41421
3.70711 6.4209 -1.41421
5.5492 5.5492 -0.765367
3.92388 6.79636 -0.765367
5.5492 5.5492 -0.765367
3.92388 6.79636 -0.765367
5.65685 5.65685 0
4 6.9282 0
4 6.9282 0
2.07055 7.72741 0
3.92388 6.79636 0.765367
2.03115 7.58035 0.765367
3.92388 6.79636 0.765367
2.03115 7.58035 0.765367
3.70711 6.4209 1.41421
1.91894 7.16158 1.41421
3.70711 6.4209 1.41421
1.91894 7.16158 1.41421
3.38268 5.85898 1.84776
1.75101 6.53484 1.84776
3.38268 5.85898 1.84776
1.75101 6.53484 1.84776
3 5.19615 2
1.55291 5.79555 2
3 5.19615 2
1.55291 5.79555 2
2.61732 4.53333 1.84776
1.35482 5.05627 1.84776
2.61732 4.53333 1.84776
1.35482 5.05627 1.84776
2.29289 3.97141 1.41421
1.18689 4.42953 1.41421
2.29289 3.97141 1.41421
1.18689 4.42953 1.41421
2.07612 3.59595 0.765367
1.07468 4.01076 0.765367
2.07612 3.59595 0.765367
1.07468 4.01076 0.765367
2 3.4641 2.44929e-16
1.03528 3.8637 2.44929e-16
2 3.4641 2.44929e-16
1.03528 3.8637 2.44929e-16
2.07612 3.59595 -0.765367
1.07468 4.01076 -0.765367
2.07612 3.59595 -0.765367
1.07468 4.01076 -0.765367
2.29289 3.97141 -1.41421
1.18689 4.42953 -1.41421
2.29289 3.97141 -1.41421
1.18689 4.42953 -1.41421
2.61732 4.53333 -1.84776
1.35482 5.05627 -1.84776
2.61732 4.53333 -1.84776
1.35482 5.05627 -1.84776
3 5.19615 -2
1.55291 5.79555 -2
3 5.19615 -2
1.55291 5.79555 -2
3.38268 5.85898 -1.84776
1.75101 6.53484 -1.84776
3.38268 5.85898 -1.84776
1.75101 6.53484 -1.84776
3.70711 6.4209 -1.41421
1.91894 7.16158 -1.41421
3.70711 6.4209 -1.41421
1.91894 7.16158 -1.41421
3.92388 6.79636 -0.765367
2.03115 7.58035 -0.765367
3.92388 6.79636 -0.765367
2.03115 7.58035 -0.765367
4 6.9282 0
2.07055 7.72741 0
2.07055 7.72741 0
4.89859e-16 8 0
2.03115 7.58035 0.765367
4.80537e-16 7.84776 0.765367
2.03115 7.58035 0.765367
4.80537e-16 7.84776 0.765367
1.91894 7.16158 1.41421
4.5399e-16 7.41421 1.41421
1.91894 7.16158 1.41421
4.5399e-16 7.41421 1.41421
1.75101 6.53484 1.84776
4.14259e-16 6.76537 1.84776
1.75101 6.53484 1.84776
4.14259e-16 6.76537 1.84776
1.55291 5.79555 2
3.67394e-16 6 2
1.55291 5.79555 2
3.67394e-16 6 2
1.35482 5.05627 1.84776
3.20529e-16 5.23463 1.84776
1.35482 5.05627 1.84776
3.20529e-16 5.23463 1.84776
1.18689 4.42953 1.41421
2.80798e-16 4.58579 1.41421
1.18689 4.42953 1.41421
2.80798e-16 4.58579 1.41421
1.07468 4.01076 0.765367
2.54251e-16 4.15224 0.765367
1.07468 4.01076 0.765367
2.54251e-16 4.15224 0.765367
1.03528 3.8637 2.44929e-16
2.44929e-16 4 2.44929e-16
1.03528 3.8637 2.44929e-16
2.44929e-16 4 2.44929e-16
1.07468 4.01076 -0.765367
2.54251e-16 4.15224 -0.765367
1.07468 4.01076 -0.765367
2.54251e-16 4.15224 -0.765367
1.18689 4.42953 -1.41421
2.80798e-16 4.58579 -1.41421
1.18689 4.42953 -1.41421
2.80798e-16 4.58579 -1.41421
1.35482 5.05627 -1.84776
3.20529e-16 5.23463 -1.84776
1.35482 5.05627 -1.84776
3.20529e-16 5.23463 -1.84776
1.55291 5.79555 -2
3.67394e-16 6 -2
1.55291 5.79555 -2
3.67394e-16 6 -2
1.75101 6.53484 -1.84776
4.14259e-16 6.76537 -1.84776
1.75101 6.53484 -1.84776
4.14259e-16 6.76537 -1.84776
1.91894 7.16158 -1.41421
4.5399e-16 7.41421 -1.41421
1.91894 7.16158 -1.41421
4.5399e-16 7.41421 -1.41421
2.03115 7.58035 -0.765367
4.80537e-16 7.84776 -0.765367
2.03115 7.58035 -0.765367
4.80537e-16 7.84776 -0.765367
2.07055 7.72741 0
4.89859e-16 8 0
4.89859e-16 8 0
-2.07055 7.72741 0
4.80537e-16 7.84776 0.765367
-2.03115 7.58035 0.765367
4.80537e-16 7.84776 0.765367
-2.03115 7.58035 0.765367
4.5399e-16 7.41421 1.41421
-1.91894 7.16158 1.41421
4.5399e-16 7.41421 1.41421
-1.91894 7.16158 1.41421
4.14259e-16 6.76537 1.84776
-1.75101 6.53484 1.84776
4.14259e-16 6.76537 1.84776
-1.75101 6.53484 1.84776
3.67394e-16 6 2
-1.55291 5.79555 2
3.67394e-16 6 2
-1.55291 5.79555 2
3.20529e-16 5.23463 1.84776
-1.35482 5.05627 1.84776
3.20529e-16 5.23463 1.84776
-1.35482 5.05627 1.84776
2.80798e-16 4.58579 1.41421
-1.18689 4.42953 1.41421
2.80798e-16 4.58579 1.41421
-1.18689 4.42953 1.41421
2.54251e-16 4.15224 0.765367
-1.07468 4.01076 0.765367
2.54251e-16 4.15224 0.765367
-1.07468 4.01076 0.765367
2.44929e-16 4 2.44929e-16
-1.03528 3.8637 2.44929e-16
2.44929e-16 4 2.44929e-16
-1.03528 3.8637 2.44929e-16
2.54251e-16 4.15224 -0.765367
-1.07468 4.01076 -0.765367
2.54251e-16 4.15224 -0.765367
-1.07468 4.01076 -0.765367
2.80798e-16 4.58579 -1.41421
-1.18689 4.42953 -1.41421
2.80798e-16 4.58579 -1.41421
-1.18689 4.42953 -1.41421
3.20529e-16 5.23463 -1.84776
[...]
POINT_DATA 1536
SCALARS phi double 1
LOOKUP_TABLE default
1 -0.479211 1775.72 1356.47 1775.72 1356.47 1643.22 1271.77 1643.22 1271.77 840.578 661.341 840.578 661.341 374.226 299.141 374.226 299.141 186.854 152.38 186.854 152.38 100.994 84.4062 100.994 84.4062 46.1956 39.2581 46.1956 39.2581 1 0.510288 1 0.510288 -43.5806 -38.0133 -43.5806 -38.0133 -96.6373 -82.7745 -96.6373 -82.7745 -180.351 -150.986 -180.351 -150.986 -366.701 -299.006 -366.701 -299.006 -834.075 -662.507 -834.075 -662.507 -1638.86 -1273.26 -1638.86 -1273.26 -1773.1 -1357.63 -1773.1 -1357.63 1 -0.479211 -0.479211 -0.653644 1356.47 618.244 1356.47 618.244 1271.77 603.563 1271.77 603.563 661.341 330.852 661.341 330.852 299.141 156.882 299.141 156.882 152.38 84.0275 152.38 84.0275 84.4062 49.6913 84.4062 49.6913 39.2581 24.212 39.2581 24.212 0.510288 -0.416147 0.510288 -0.416147 -38.0133 -25.4779 -38.0133 -25.4779 -82.7745 -52.5707 -82.7745 -52.5707 -150.986 -89.6572 -150.986 -89.6572 -299.006 -164.331 -299.006 -164.331 -662.507 -337.167 -662.507 -337.167 -1273.26 -607.241 -1273.26 -607.241 -1357.63 -620.099 -1357.63 -620.099 -0.479211 -0.653644 -0.653644 0.810184 618.244 179.669 618.244 179.669 603.563 188.935 603.563 188.935 330.852 115.459 330.852 115.459 156.882 59.9345 156.882 59.9345 84.0275 33.5853 84.0275 33.5853 49.6913 21.1958 49.6913 21.1958 24.212 10.9491 24.212 10.9491 -0.416147 -0.951363 -0.416147 -0.951363 -25.4779 -13.509 -25.4779 -13.509 -52.5707 -25.5299 -52.5707 -25.5299 -89.6572 -39.0956 -89.6572 -39.0956 -164.331 -63.3405 -164.331 -63.3405 -337.167 -114.994 -337.167 -114.994 -607.241 -186.732 -607.241 -186.732 -620.099 -177.727 -620.099 -177.727 -0.653644 0.810184 0.810184 0.799089 179.669 36.9261 179.669 36.9261 188.935 44.3117 188.935 44.3117 115.459 34.1105 115.459 34.1105 59.9345 21.7005 59.9345 21.7005 33.5853 12.0467 33.5853 12.0467 21.1958 7.00589 21.1958 7.00589 10.9491 3.59236 10.9491 3.59236 -0.951363 -0.948443 -0.951363 -0.948443 -13.509 -5.94201 -13.509 -5.94201 -25.5299 -9.9465 -25.5299 -9.9465 -39.0956 -13.2049 -39.0956 -13.2049 -63.3405 -18.2008 -63.3405 -18.2008 -114.994 -28.1838 -114.994 -28.1838 -186.732 -39.9966 -186.732 -39.9966 -177.727 -34.648 -177.727 -34.648 0.810184 0.799089 0.799089 0.126237 36.9261 5.86205 36.9261 5.86205 44.3117 9.35622 44.3117 9.35622 34.1105 11.6866 34.1105 11.6866 21.7005 10.8245 21.7005 10.8245 12.0467 5.86771 12.0467 5.86771 7.00589 2.08876 7.00589 2.08876 3.59236 0.641642 3.59236 0.641642 -0.948443 -0.750412 -0.948443 -0.750412 -5.94201 -2.3295 -5.94201 -2.3295 -9.9465 -3.30464 -9.9465 -3.30464 -13.2049 -3.67523 -13.2049 -3.67523 -18.2008 -4.17707 -18.2008 -4.17707 -28.1838 -5.38824 -28.1838 -5.38824 -39.9966 -6.57517 -39.9966 -6.57517 -34.648 -5.15542 -34.648 -5.15542 0.799089 0.126237 0.126237 -0.1455 5.86205 0.706179 5.86205 0.706179 9.35622 2.7389 9.35622 2.7389 11.6866 6.58398 11.6866 6.58398 10.8245 8.00405 10.8245 8.00405 5.86771 4.12723 5.86771 4.12723 2.08876 0.468408 2.08876 0.468408 0.641642 -0.449403 0.641642 -0.449403 -0.750412 -0.653644 -0.750412 -0.653644 -2.3295 -0.939948 -2.3295 -0.939948 -3.30464 -1.01846 -3.30464 -1.01846 -3.67523 -0.88328 -3.67523 -0.88328 -4.17707 -0.779352 -4.17707 -0.779352 -5.38824 -0.822268 -5.38824 -0.822268 -6.57517 -0.884264 -6.57517 -0.884264 -5.15542 -0.689907 -5.15542 -0.689907 0.126237 -0.1455 -0.1455 0.126237 0.706179 0.671814 0.706179 0.671814 2.7389 2.77081 2.7389 2.77081 6.58398 6.31269 6.58398 6.31269 8.00405 6.72026 8.00405 6.72026 4.12723 2.38752 4.12723 2.38752 0.468408 -0.846583 0.468408 -0.846583 -0.449403 -1.15108 -0.449403 -1.15108 -0.653644 -0.750412 -0.653644 -0.750412 -0.939948 -0.536774 -0.939948 -0.536774 -1.01846 -0.36929 -1.01846 -0.36929 -0.88328 -0.195031 -0.88328 -0.195031 -0.779352 -0.0728735 -0.779352 -0.0728735 -0.822268 -0.0143574 -0.822268 -0.0143574 -0.884264 0.0102356 -0.884264 0.0102356 -0.689907 0.0348146 -0.689907 0.0348146 -0.1455 0.126237 0.126237 0.799089 0.671814 1.88656 0.671814 1.88656 2.77081 4.09856 2.77081 4.09856 6.31269 5.81581 6.31269 5.81581 6.72026 3.48203 6.72026 3.48203 2.38752 -1.05998 2.38752 -1.05998 -0.846583 -2.67676 -0.846583 -2.67676 -1.15108 -1.84479 -1.15108 -1.84479 -0.750412 -0.948443 -0.750412 -0.948443 -0.536774 -0.504858 -0.536774 -0.504858 -0.36929 -0.263845 -0.36929 -0.263845 -0.195031 -0.0982846 -0.195031 -0.0982846 -0.0728735 0.0176751 -0.0728735 0.0176751 -0.0143574 0.11096 -0.0143574 0.11096 0.0102356 0.216567 0.0102356 0.216567 0.0348146 0.391553 0.0348146 0.391553 0.126237 0.799089 0.799089 0.810184 1.88656 1.59894 1.88656 1.59894 4.09856 2.0855 4.09856 2.0855 5.81581 0.461037 5.81581 0.461037 3.48203 -3.33168 3.48203 -3.33168 -1.05998 -5.35308 -1.05998 -5.35308 -2.67676 -4.05369 -2.67676 -4.05369 -1.84479 -2.06777 -1.84479 -2.06777 -0.948443 -0.951363 -0.948443 -0.951363 -0.504858 -0.492144 -0.504858 -0.492144 -0.263845 -0.280459 -0.263845 -0.280459 -0.0982846 -0.157278 -0.0982846 -0.157278 0.0176751 -0.0743274 0.0176751 -0.0743274 0.11096 0.00320477 0.11096 0.00320477 0.216567 0.117735 0.216567 0.117735 0.391553 0.342694 0.391553 0.342694 0.799089 0.810184 0.810184 -0.653644 1.59894 -1.52407 1.59894 -1.52407 2.0855 -3.47126 2.0855 -3.47126 0.461037 -6.15931 0.461037 -6.15931 -3.33168 -7.31007 -3.33168 -7.31007 -5.35308 -5.48295 -5.35308 -5.48295 -4.05369 -2.70008 -4.05369 -2.70008 -2.06777 -1.02168 -2.06777 -1.02168 -0.951363 -0.416147 -0.951363 -0.416147 -0.492144 -0.244188 -0.492144 -0.244188 -0.280459 -0.179307 -0.280459 -0.179307 -0.157278 -0.146759 -0.157278 -0.146759 -0.0743274 -0.139016 -0.0743274 -0.139016 0.00320477 -0.155777 0.00320477 -0.155777 0.117735 -0.206874 0.117735 -0.206874 0.342694 -0.330716 0.342694 -0.330716 0.810184 -0.653644 -0.653644 -0.479211 -1.52407 -0.954719 -1.52407 -0.954719 -3.47126 -1.40248 -3.47126 -1.40248 -6.15931 -1.13596 -6.15931 -1.13596 -7.31007 0.13489 -7.31007 0.13489 -5.48295 1.36598 -5.48295 1.36598 -2.70008 1.55238 -2.70008 1.55238 -1.02168 1.03588 -1.02168 1.03588 -0.416147 0.510288 -0.416147 0.510288 -0.244188 0.208871 -0.244188 0.208871 -0.179307 0.0792842 -0.179307 0.0792842 -0.146759 0.0276447 -0.146759 0.0276447 -0.139016 -0.000345268 -0.139016 -0.000345268 -0.155777 -0.0296424 -0.155777 -0.0296424 -0.206874 -0.0837064 -0.206874 -0.0837064 -0.330716 -0.207009 -0.330716 -0.207009 -0.653644 -0.479211 -0.479211 1 -0.954719 2.15005 -0.954719 2.15005 -1.40248 4.11385 -1.40248 4.11385 -1.13596 6.34669 -1.13596 6.34669 0.13489 7.39131 0.13489 7.39131 1.36598 6.35071 1.36598 6.35071 1.55238 4.12332 1.55238 4.12332 1.03588 2.16068 1.03588 2.16068 0.510288 1 0.510288 1 0.208871 0.454266 0.208871 0.454266 0.0792842 0.233046 0.0792842 0.233046 0.0276447 0.152464 0.0276447 0.152464 -0.000345268 0.133081 -0.000345268 0.133081 -0.0296424 0.156481 -0.0296424 0.156481 -0.0837064 0.242521 -0.0837064 0.242521 -0.207009 0.464893 -0.207009 0.464893 -0.479211 1 1 -0.479211 2.15005 -0.954719 2.15005 -0.954719 4.11385 -1.40248 4.11385 -1.40248 6.34669 -1.13596 6.34669 -1.13596 7.39131 0.13489 7.39131 0.13489 6.35071 1.36598 6.35071 1.36598 4.12332 1.55238 4.12332 1.55238 2.16068 1.03588 2.16068 1.03588 1 0.510288 1 0.510288 0.454266 0.208871 0.454266 0.208871 0.233046 0.0792842 0.233046 0.0792842 0.152464 0.0276447 0.152464 0.0276447 0.133081 -0.000345268 0.133081 -0.000345268 0.156481 -0.0296424 0.156481 -0.0296424 0.242521 -0.0837064 0.242521 -0.0837064 0.464893 -0.207009 0.464893 -0.207009 1 -0.479211 -0.479211 -0.653644 -0.954719 -1.52407 -0.954719 -1.52407 -1.40248 -3.47126 -1.40248 -3.47126 -1.13596 -6.15931 -1.13596 -6.15931 0.13489 -7.31007 0.13489 -7.31007 1.36598 -5.48295 1.36598 -5.48295 1.55238 -2.70008 1.55238 -2.70008 1.03588 -1.02168 1.03588 -1.02168 0.510288 -0.416147 0.510288 -0.416147 0.208871 -0.244188 0.208871 -0.244188 0.0792842 -0.179307 0.0792842 -0.179307 0.0276447 -0.146759 0.0276447 -0.146759 -0.000345268 -0.139016 -0.000345268 -0.139016 -0.0296424 -0.155777 -0.0296424 -0.155777 -0.0837064 -0.206874 -0.0837064 -0.206874 -0.207009 -0.330716 -0.207009 -0.330716 -0.479211 -0.653644 -0.653644 0.810184 -1.52407 1.59894 -1.52407 1.59894 -3.47126 2.0855 -3.47126 2.0855 -6.15931 0.461037 -6.15931 0.461037 -7.31007 -3.33168 -7.31007 -3.33168 -5.48295 -5.35308 -5.48295 -5.35308 -2.70008 -4.05369 -2.70008 -4.05369 -1.02168 -2.06777 -1.02168 -2.06777 -0.416147 -0.951363 -0.416147 -0.951363 -0.244188 -0.492144 -0.244188 -0.492144 -0.179307 -0.280459 -0.179307 -0.280459 -0.146759 -0.157278 -0.146759 -0.157278 -0.139016 -0.0743274 -0.139016 -0.0743274 -0.155777 0.00320477 -0.155777 0.00320477 -0.206874 0.117735 -0.206874 0.117735 -0.330716 0.342694 -0.330716 0.342694 -0.653644 0.810184 0.810184 0.799089 1.59894 1.88656 1.59894 1.88656 2.0855 4.09856 2.0855 4.09856 0.461037 5.81581 0.461037 5.81581 -3.33168 3.48203 -3.33168 3.48203 -5.35308 -1.05998 -5.35308 -1.05998 -4.05369 -2.67676 -4.05369 -2.67676 -2.06777 -1.84479 -2.06777 -1.84479 -0.951363 -0.948443 -0.951363 -0.948443 -0.492144 -0.504858 -0.492144 -0.504858 -0.280459 -0.263845 -0.280459 -0.263845 -0.157278 -0.0982846 -0.157278 -0.0982846 -0.0743274 0.0176751 -0.0743274 0.0176751 0.00320477 0.11096 0.00320477 0.11096 0.117735 0.216567 0.117735 0.216567 0.342694 0.391553 0.342694 0.391553 0.810184 0.799089 0.799089 0.126237 1.88656 0.671814 1.88656 0.671814 4.09856 2.77081 4.09856 2.77081 5.81581 6.31269 5.81581 6.31269 3.48203 6.72026 3.48203 6.72026 -1.05998 2.38752 -1.05998 2.38752 -2.67676 -0.846583 -2.67676 -0.846583 -1.84479 -1.15108 -1.84479 -1.15108 -0.948443 -0.750412 -0.948443 -0.750412 -0.504858 -0.536774 -0.504858 -0.536774 -0.263845 -0.36929 -0.263845 -0.36929 -0.0982846 -0.195031 -0.0982846 -0.195031 0.0176751 -0.0728735 0.0176751 -0.0728735 0.11096 -0.0143574 0.11096 -0.0143574 0.216567 0.0102356 0.216567 0.0102356 0.391553 0.0348146 0.391553 0.0348146 0.799089 0.126237 0.126237 -0.1455 0.671814 0.706179 0.671814 0.706179 2.77081 2.7389 2.77081 2.7389 6.31269 6.58398 6.31269 6.58398 6.72026 8.00405 6.72026 8.00405 2.38752 4.12723 2.38752 4.12723 -0.846583 0.468408 -0.846583 0.468408 -1.15108 -0.449403 -1.15108 -0.449403 -0.750412 -0.653644 -0.750412 -0.653644 -0.536774 -0.939948 -0.536774 -0.939948 -0.36929 -1.01846 -0.36929 -1.01846 -0.195031 -0.88328 -0.195031 -0.88328 -0.0728735 -0.779352 -0.0728735 -0.779352 -0.0143574 -0.822268 -0.0143574 -0.822268 0.0102356 -0.884264 0.0102356 -0.884264 0.0348146 -0.689907 0.0348146 -0.689907 0.126237 -0.1455 -0.1455 0.126237 0.706179 5.86205 0.706179 5.86205 2.7389 9.35622 2.7389 9.35622 6.58398 11.6866 6.58398 11.6866 8.00405 10.8245 8.00405 10.8245 4.12723 5.86771 4.12723 5.86771 0.468408 2.08876 0.468408 2.08876 -0.449403 0.641642 -0.449403 0.641642 -0.653644 -0.750412 -0.653644 -0.750412 -0.939948 -2.3295 -0.939948 -2.3295 -1.01846 -3.30464 -1.01846 -3.30464 -0.88328 -3.67523 -0.88328 -3.67523 -0.779352 -4.17707 -0.779352 -4.17707 -0.822268 -5.38824 -0.822268 -5.38824 -0.884264 -6.57517 -0.884264 -6.57517 -0.689907 -5.15542 -0.689907 -5.15542 -0.1455 0.126237 0.126237 0.799089 5.86205 36.9261 5.86205 36.9261 9.35622 44.3117 9.35622 44.3117 11.6866 34.1105 11.6866 34.1105 10.8245 21.7005 10.8245 21.7005 5.86771 12.0467 5.86771 12.0467 2.08876 7.00589 2.08876 7.00589 0.641642 3.59236 0.641642 3.59236 -0.750412 -0.948443 -0.750412 -0.948443 -2.3295 -5.94201 -2.3295 -5.94201 -3.30464 -9.9465 -3.30464 -9.9465 -3.67523 -13.2049 -3.67523 -13.2049 -4.17707 -18.2008 -4.17707 -18.2008 -5.38824 -28.1838 -5.38824 -28.1838 -6.57517 -39.9966 -6.57517 -39.9966 -5.15542 -34.648 -5.15542 -34.648 0.126237 0.799089 0.799089 0.810184 36.9261 179.669 36.9261 179.669 44.3117 188.935 44.3117 188.935 34.1105 115.459 34.1105 115.459 21.7005 59.9345 21.7005 59.9345 12.0467 33.5853 12.0467 33.5853 7.00589 21.1958 7.00589 21.1958 3.59236 10.9491 3.59236 10.9491 -0.948443 -0.951363 -0.948443 -0.951363 -5.94201 -13.509 -5.94201 -13.509 -9.9465 -25.5299 -9.9465 -25.5299 -13.2049 -39.0956 -13.2049 -39.0956 -18.2008 -63.3405 -18.2008 -63.3405 -28.1838 -114.994 -28.1838 -114.994 -39.9966 -186.732 -39.9966 -186.732 -34.648 -177.727 -34.648 -177.727 0.799089 0.810184 0.810184 -0.653644 179.669 618.244 179.669 618.244 188.935 603.563 188.935 603.563 115.459 330.852 115.459 330.852 59.9345 156.882 59.9345 156.882 33.5853 84.0275 33.5853 84.0275 21.1958 49.6913 21.1958 49.6913 10.9491 24.212 10.9491 24.212 -0.951363 -0.416147 -0.951363 -0.416147 -13.509 -25.4779 -13.509 -25.4779 -25.5299 -52.5707 -25.5299 -52.5707 -39.0956 -89.6572 -39.0956 -89.6572 -63.3405 -164.331 -63.3405 -164.331 -114.994 -337.167 -114.994 -337.167 -186.732 -607.241 -186.732 -607.241 -177.727 -620.099 -177.727 -620.099 0.810184 -0.653644 -0.653644 -0.479211 618.244 1356.47 618.244 1356.47 603.563 1271.77 603.563 1271.77 330.852 661.341 330.852 661.341 156.882 299.141 156.882 299.141 84.0275 152.38 84.0275 152.38 49.6913 84.4062 49.6913 84.4062 24.212 39.2581 24.212 39.2581 -0.416147 0.510288 -0.416147 0.510288 -25.4779 -38.0133 -25.4779 -38.0133 -52.5707 -82.7745 -52.5707 -82.7745 -89.6572 -150.986 -89.6572 -150.986 -164.331 -299.006 -164.331 -299.006 -337.167 -662.507 -337.167 -662.507 -607.241 -1273.26 -607.241 -1273.26 -620.099 -1357.63 -620.099 -1357.63 -0.653644 -0.479211 -0.479211 1 1356.47 1775.72 1356.47 1775.72 1271.77 1643.22 1271.77 1643.22 661.341 840.578 661.341 840.578 299.141 374.226 299.141 374.226 152.38 186.854 152.38 186.854 84.4062 100.994 84.4062 100.994 39.2581 46.1956 39.2581 46.1956 0.510288 1 0.510288 1 -38.0133 -43.5806 -38.0133 -43.5806 -82.7745 -96.6373 -82.7745 -96.6373 -150.986 -180.351 -150.986 -180.351 -299.006 -366.701 -299.006 -366.701 -662.507 -834.075 -662.507 -834.075 -1273.26 -1638.86 -1273.26 -1638.86 -1357.63 -1773.1 -1357.63 -1773.1 -0.479211 1 
SCALARS phi_n double 1
LOOKUP_TABLE default