# vtk DataFile Version 3.0
#This file was generated by the deal.II library on 2025/2/17 at 12:37:33
ASCII
DATASET UNSTRUCTURED_GRID

POINTS 384 double
8 0 0
6.9282 4 0
7.41421 0 1.41421
6.4209 3.70711 1.41421
7.41421 0 1.41421
6.4209 3.70711 1.41421
6 0 2
5.19615 3 2
6 0 2
5.19615 3 2
4.58579 0 1.41421
3.97141 2.29289 1.41421
4.58579 0 1.41421
3.97141 2.29289 1.41421
4 0 2.44929e-16
3.4641 2 2.44929e-16
4 0 2.44929e-16
3.4641 2 2.44929e-16
4.58579 0 -1.41421
3.97141 2.29289 -1.41421
4.58579 0 -1.41421
3.97141 2.29289 -1.41421
6 0 -2
5.19615 3 -2
6 0 -2
5.19615 3 -2
7.41421 0 -1.41421
6.4209 3.70711 -1.41421
7.41421 0 -1.41421
6.4209 3.70711 -1.41421
8 0 0
6.9282 4 0
6.9282 4 0
4 6.9282 0
6.4209 3.70711 1.41421
3.70711 6.4209 1.41421
6.4209 3.70711 1.41421
3.70711 6.4209 1.41421
5.19615 3 2
3 5.19615 2
5.19615 3 2
3 5.19615 2
3.97141 2.29289 1.41421
2.29289 3.97141 1.41421
3.97141 2.29289 1.41421
2.29289 3.97141 1.41421
3.4641 2 2.44929e-16
2 3.4641 2.44929e-16
3.4641 2 2.44929e-16
2 3.4641 2.44929e-16
3.97141 2.29289 -1.41421
2.29289 3.97141 -1.41421
3.97141 2.29289 -1.41421
2.29289 3.97141 -1.41421
5.19615 3 -2
3 5.19615 -2
5.19615 3 -2
3 5.19615 -2
6.4209 3.70711 -1.41421
3.70711 6.4209 -1.41421
6.4209 3.70711 -1.41421
3.70711 6.4209 -1.41421
6.9282 4 0
4 6.9282 0
4 6.9282 0
4.89859e-16 8 0
3.70711 6.4209 1.41421
4.5399e-16 7.41421 1.41421
3.70711 6.4209 1.41421
4.5399e-16 7.41421 1.41421
3 5.19615 2
3.67394e-16 6 2
3 5.19615 2
3.67394e-16 6 2
2.29289 3.97141 1.41421
2.80798e-16 4.58579 1.41421
2.29289 3.97141 1.41421
2.80798e-16 4.58579 1.41421
2 3.4641 2.44929e-16
2.44929e-16 4 2.44929e-16
2 3.4641 2.44929e-16
2.44929e-16 4 2.44929e-16
2.29289 3.97141 -1.41421
2.80798e-16 4.58579 -1.41421
2.29289 3.97141 -1.41421
2.80798e-16 4.58579 -1.41421
3 5.19615 -2
3.67394e-16 6 -2
3 5.19615 -2
3.67394e-16 6 -2
3.70711 6.4209 -1.41421
4.5399e-16 7.41421 -1.41421
3.70711 6.4209 -1.41421
4.5399e-16 7.41421 -1.41421
4 6.9282 0
4.89859e-16 8 0
4.89859e-16 8 0
-4 6.9282 0
4.5399e-16 7.41421 1.41421
-3.70711 6.4209 1.41421
4.5399e-16 7.41421 1.41421
-3.70711 6.4209 1.41421
3.67394e-16 6 2
-3 5.19615 2
3.67394e-16 6 2
-3 5.19615 2
2.80798e-16 4.58579 1.41421
-2.29289 3.97141 1.41421
2.80798e-16 4.58579 1.41421
-2.29289 3.97141 1.41421
2.44929e-16 4 2.44929e-16
-2 3.4641 2.44929e-16
2.44929e-16 4 2.44929e-16
-2 3.4641 2.44929e-16
2.80798e-16 4.58579 -1.41421
-2.29289 3.97141 -1.41421
2.80798e-16 4.58579 -1.41421
-2.29289 3.97141 -1.41421
3.67394e-16 6 -2
-3 5.19615 -2
3.67394e-16 6 -2
-3 5.19615 -2
4.5399e-16 7.41421 -1.41421
-3.70711 6.4209 -1.41421
4.5399e-16 7.41421 -1.41421
-3.70711 6.4209 -1.41421
4.89859e-16 8 0
-4 6.9282 0
-4 6.9282 0
-6.9282 4 0
-3.70711 6.4209 1.41421
-6.4209 3.70711 1.41421
-3.70711 6.4209 1.41421
-6.4209 3.70711 1.41421
-3 5.19615 2
-5.19615 3 2
-3 5.19615 2
-5.19615 3 2
-2.29289 3.97141 1.41421
-3.97141 2.29289 1.41421
-2.29289 3.97141 1.41421
-3.97141 2.29289 1.41421
-2 3.4641 2.44929e-16
-3.4641 2 2.44929e-16
-2 3.4641 2.44929e-16
-3.4641 2 2.44929e-16
-2.29289 3.97141 -1.41421
-3.97141 2.29289 -1.41421
-2.29289 3.97141 -1.41421
-3.97141 2.29289 -1.41421
-3 5.19615 -2
-5.19615 3 -2
-3 5.19615 -2
-5.19615 3 -2
-3.70711 6.4209 -1.41421
-6.4209 3.70711 -1.41421
-3.70711 6.4209 -1.41421
-6.4209 3.70711 -1.41421
-4 6.9282 0
-6.9282 4 0
-6.9282 4 0
-8 9.79717e-16 0
-6.4209 3.70711 1.41421
-7.41421 9.07979e-16 1.41421
-6.4209 3.70711 1.41421
-7.41421 9.07979e-16 1.41421
-5.19615 3 2
-6 7.34788e-16 2
-5.19615 3 2
-6 7.34788e-16 2
-3.97141 2.29289 1.41421
-4.58579 5.61597e-16 1.41421
-3.97141 2.29289 1.41421
-4.58579 5.61597e-16 1.41421
-3.4641 2 2.44929e-16
-4 4.89859e-16 2.44929e-16
-3.4641 2 2.44929e-16
-4 4.89859e-16 2.44929e-16
-3.97141 2.29289 -1.41421
-4.58579 5.61597e-16 -1.41421
-3.97141 2.29289 -1.41421
-4.58579 5.61597e-16 -1.41421
-5.19615 3 -2
-6 7.34788e-16 -2
-5.19615 3 -2
-6 7.34788e-16 -2
-6.4209 3.70711 -1.41421
-7.41421 9.07979e-16 -1.41421
-6.4209 3.70711 -1.41421
-7.41421 9.07979e-16 -1.41421
-6.9282 4 0
-8 9.79717e-16 0
-8 9.79717e-16 0
-6.9282 -4 0
-7.41421 9.07979e-16 1.41421
-6.4209 -3.70711 1.41421
-7.41421 9.07979e-16 1.41421
-6.4209 -3.70711 1.41421
-6 7.34788e-16 2
-5.19615 -3 2
-6 7.34788e-16 2
-5.19615 -3 2
-4.58579 5.61597e-16 1.41421
-3.97141 -2.29289 1.41421
-4.58579 5.61597e-16 1.41421
-3.97141 -2.29289 1.41421
-4 4.89859e-16 2.44929e-16
-3.4641 -2 2.44929e-16
-4 4.89859e-16 2.44929e-16
-3.4641 -2 2.44929e-16
-4.58579 5.61597e-16 -1.41421
-3.97141 -2.29289 -1.41421
-4.58579 5.61597e-16 -1.41421
-3.97141 -2.29289 -1.41421
-6 7.34788e-16 -2
-5.19615 -3 -2
-6 7.34788e-16 -2
-5.19615 -3 -2
-7.41421 9.07979e-16 -1.41421
-6.4209 -3.70711 -1.41421
-7.41421 9.07979e-16 -1.41421
-6.4209 -3.70711 -1.41421
-8 9.79717e-16 0
-6.9282 -4 0
-6.9282 -4 0
-4 -6.9282 0
-6.4209 -3.70711 1.41421
-3.70711 -6.4209 1.41421
-6.4209 -3.70711 1.41421
-3.70711 -6.4209 1.41421
-5.19615 -3 2
-3 -5.19615 2
-5.19615 -3 2
-3 -5.19615 2
-3.97141 -2.29289 1.41421
-2.29289 -3.97141 1.41421
-3.97141 -2.29289 1.41421
-2.29289 -3.97141 1.41421
-3.4641 -2 2.44929e-16
-2 -3.4641 2.44929e-16
-3.4641 -2 2.44929e-16
-2 -3.4641 2.44929e-16
-3.97141 -2.29289 -1.41421
-2.29289 -3.97141 -1.41421
-3.97141 -2.29289 -1.41421
-2.29289 -3.97141 -1.41421
-5.19615 -3 -2
-3 -5.19615 -2
-5.19615 -3 -2
-3 -5.19615 -2
-6.4209 -3.70711 -1.41421
-3.70711 -6.4209 -1.41421
-6.4209 -3.70711 -1.41421
-3.70711 -6.4209 -1.41421
-6.9282 -4 0
-4 -6.9282 0
-4 -6.9282 0
-1.46958e-15 -8 0
-3.70711 -6.4209 1.41421
-1.36197e-15 -7.41421 1.41421
-3.70711 -6.4209 1.41421
-1.36197e-15 -7.41421 1.41421
-3 -5.19615 2
-1.10218e-15 -6 2
-3 -5.19615 2
-1.10218e-15 -6 2
-2.29289 -3.97141 1.41421
-8.42395e-16 -4.58579 1.41421
-2.29289 -3.97141 1.41421
-8.42395e-16 -4.58579 1.41421
-2 -3.4641 2.44929e-16
-7.34788e-16 -4 2.44929e-16
-2 -3.4641 2.44929e-16
-7.34788e-16 -4 2.44929e-16
-2.29289 -3.97141 -1.41421
-8.42395e-16 -4.58579 -1.41421
-2.29289 -3.97141 -1.41421
-8.42395e-16 -4.58579 -1.41421
-3 -5.19615 -2
-1.10218e-15 -6 -2
-3 -5.19615 -2
-1.10218e-15 -6 -2
-3.70711 -6.4209 -1.41421
-1.36197e-15 -7.41421 -1.41421
-3.70711 -6.4209 -1.41421
-1.36197e-15 -7.41421 -1.41421
-4 -6.9282 0
-1.46958e-15 -8 0
-1.46958e-15 -8 0
4 -6.9282 0
-1.36197e-15 -7.41421 1.41421
3.70711 -6.4209 1.41421
-1.36197e-15 -7.41421 1.41421
3.70711 -6.4209 1.41421
-1.10218e-15 -6 2
3 -5.19615 2
-1.10218e-15 -6 2
3 -5.19615 2
-8.42395e-16 -4.58579 1.41421
2.29289 -3.97141 1.41421
-8.42395e-16 -4.58579 1.41421
2.29289 -3.97141 1.41421
-7.34788e-16 -4 2.44929e-16
2 -3.4641 2.44929e-16
-7.34788e-16 -4 2.44929e-16
2 -3.4641 2.44929e-16
-8.42395e-16 -4.58579 -1.41421
2.29289 -3.97141 -1.41421
-8.42395e-16 -4.58579 -1.41421
2.29289 -3.97141 -1.41421
-1.10218e-15 -6 -2
3 -5.19615 -2
-1.10218e-15 -6 -2
3 -5.19615 -2
-1.36197e-15 -7.41421 -1.41421
3.70711 -6.4209 -1.41421
-1.36197e-15 -7.41421 -1.41421
3.70711 -6.4209 -1.41421
-1.46958e-15 -8 0
4 -6.9282 0
4 -6.9282 0
6.9282 -4 0
3.70711 -6.4209 1.41421
6.4209 -3.70711 1.41421
3.70711 -6.4209 1.41421
6.4209 -3.70711 1.41421
3 -5.19615 2
5.19615 -3 2
3 -5.19615 2
5.19615 -3 2
2.29289 -3.97141 1.41421
3.97141 -2.29289 1.41421
2.29289 -3.97141 1.41421
3.97141 -2.29289 1.41421
2 -3.4641 2.44929e-16
3.4641 -2 2.44929e-16
2 -3.4641 2.44929e-16
3.4641 -2 2.44929e-16
2.29289 -3.97141 -1.41421
3.97141 -2.29289 -1.41421
2.29289 -3.97141 -1.41421
3.97141 -2.29289 -1.41421
3 -5.19615 -2
5.19615 -3 -2
3 -5.19615 -2
5.19615 -3 -2
3.70711 -6.4209 -1.41421
6.4209 -3.70711 -1.41421
3.70711 -6.4209 -1.41421
6.4209 -3.70711 -1.41421
4 -6.9282 0
6.9282 -4 0
6.9282 -4 0
8 0 0
6.4209 -3.70711 1.41421
7.41421 0 1.41421
6.4209 -3.70711 1.41421
7.41421 0 1.41421
5.19615 -3 2
6 0 2
5.19615 -3 2
6 0 2
3.97141 -2.29289 1.41421
4.58579 0 1.41421
3.97141 -2.29289 1.41421
4.58579 0 1.41421
3.4641 -2 2.44929e-16
4 0 2.44929e-16
3.4641 -2 2.44929e-16
4 0 2.44929e-16
3.97141 -2.29289 -1.41421
4.58579 0 -1.41421
3.97141 -2.29289 -1.41421
4.58579 0 -1.41421
5.19615 -3 -2
6 0 -2
5.19615 -3 -2
6 0 -2
6.4209 -3.70711 -1.41421
7.41421 0 -1.41421
6.4209 -3.70711 -1.41421
7.41421 0 -1.41421
6.9282 -4 0
8 0 0

CELLS 96 480
4	0	1	3	2
4	4	5	7	6
4	8	9	11	10
4	12	13	15	14
4	16	17	19	18
4	20	21	23	22
4	24	25	27	26
4	28	29	31	30
4	32	33	35	34
4	36	37	39	38
4	40	41	43	42
4	44	45	47	46
4	48	49	51	50
4	52	53	55	54
4	56	57	59	58
4	60	61	63	62
4	64	65	67	66
4	68	69	71	70
4	72	73	75	74
4	76	77	79	78
4	80	81	83	82
4	84	85	87	86
4	88	89	91	90
4	92	93	95	94
4	96	97	99	98
4	100	101	103	102
4	104	105	107	106
4	108	109	111	110
4	112	113	115	114
4	116	117	119	118
4	120	121	123	122
4	124	125	127	126
4	128	129	131	130
4	132	133	135	134
4	136	137	139	138
4	140	141	143	142
4	144	145	147	146
4	148	149	151	150
4	152	153	155	154
4	156	157	159	158
4	160	161	163	162
4	164	165	167	166
4	168	169	171	170
4	172	173	175	174
4	176	177	179	178
4	180	181	183	182
4	184	185	187	186
4	188	189	191	190
4	192	193	195	194
4	196	197	199	198
4	200	201	203	202
4	204	205	207	206
4	208	209	211	210
4	212	213	215	214
4	216	217	219	218
4	220	221	223	222
4	224	225	227	226
4	228	229	231	230
4	232	233	235	234
4	236	237	239	238
4	240	241	243	242
4	244	245	247	246
4	248	249	251	250
4	252	253	255	254
4	256	257	259	258
4	260	261	263	262
4	264	265	267	266
4	268	269	271	270
4	272	273	275	274
4	276	277	279	278
4	280	281	283	282
4	284	285	287	286
4	288	289	291	290
4	292	293	295	294
4	296	297	299	298
4	300	301	303	302
4	304	305	307	306
4	308	309	311	310
4	312	313	315	314
4	316	317	319	318
4	320	321	323	322
4	324	325	327	326
4	328	329	331	330
4	332	333	335	334
4	336	337	339	338
4	340	341	343	342
4	344	345	347	346
4	348	349	351	350
4	352	353	355	354
4	356	357	359	358
4	360	361	363	362
4	364	365	367	366
4	368	369	371	370
4	372	373	375	374
4	376	377	379	378
4	380	381	383	382

CELL_TYPES 96
 9 9 9 9 9 9 9 9 9 9 9 9 9 9 9 9 9 9 9 9 9 9 9 9 9 9 9 9 9 9 9 9 9 9 9 9 9 9 9 9 9 9 9 9 9 9 9 9 9 9 9 9 9 9 9 9 9 9 9 9 9 9 9 9 9 9 9 9 9 9 9 9 9 9 9 9 9 9 9 9 9 9 9 9 9 9 9 9 9 9 9 9 9 9 9 9
POINT_DATA 384
SCALARS phi double 1
LOOKUP_TABLE default
1 -0.653644 1643.22 603.563 1643.22 603.563 374.226 156.882 374.226 156.882 100.994 49.6913 100.994 49.6913 1 -0.416147 1 -0.416147 -96.6373 -52.5707 -96.6373 -52.5707 -366.701 -164.331 -366.701 -164.331 -1638.86 -607.241 -1638.86 -607.241 1 -0.653644 -0.653644 0.799089 603.563 44.3117 603.563 44.3117 156.882 21.7005 156.882 21.7005 49.6913 7.00589 49.6913 7.00589 -0.416147 -0.948443 -0.416147 -0.948443 -52.5707 -9.9465 -52.5707 -9.9465 -164.331 -18.2008 -164.331 -18.2008 -607.241 -39.9966 -607.241 -39.9966 -0.653644 0.799089 0.799089 -0.1455 44.3117 2.7389 44.3117 2.7389 21.7005 8.00405 21.7005 8.00405 7.00589 0.468408 7.00589 0.468408 -0.948443 -0.653644 -0.948443 -0.653644 -9.9465 -1.01846 -9.9465 -1.01846 -18.2008 -0.779352 -18.2008 -0.779352 -39.9966 -0.884264 -39.9966 -0.884264 0.799089 -0.1455 -0.1455 0.799089 2.7389 4.09856 2.7389 4.09856 8.00405 3.48203 8.00405 3.48203 0.468408 -2.67676 0.468408 -2.67676 -0.653644 -0.948443 -0.653644 -0.948443 -1.01846 -0.263845 -1.01846 -0.263845 -0.779352 0.0176751 -0.779352 0.0176751 -0.884264 0.216567 -0.884264 0.216567 -0.1455 0.799089 0.799089 -0.653644 4.09856 -3.47126 4.09856 -3.47126 3.48203 -7.31007 3.48203 -7.31007 -2.67676 -2.70008 -2.67676 -2.70008 -0.948443 -0.416147 -0.948443 -0.416147 -0.263845 -0.179307 -0.263845 -0.179307 0.0176751 -0.139016 0.0176751 -0.139016 0.216567 -0.206874 0.216567 -0.206874 0.799089 -0.653644 -0.653644 1 -3.47126 4.11385 -3.47126 4.11385 -7.31007 7.39131 -7.31007 7.39131 -2.70008 4.12332 -2.70008 4.12332 -0.416147 1 -0.416147 1 -0.179307 0.233046 -0.179307 0.233046 -0.139016 0.133081 -0.139016 0.133081 -0.206874 0.242521 -0.206874 0.242521 -0.653644 1 1 -0.653644 4.11385 -3.47126 4.11385 -3.47126 7.39131 -7.31007 7.39131 -7.31007 4.12332 -2.70008 4.12332 -2.70008 1 -0.416147 1 -0.416147 0.233046 -0.179307 0.233046 -0.179307 0.133081 -0.139016 0.133081 -0.139016 0.242521 -0.206874 0.242521 -0.206874 1 -0.653644 -0.653644 0.799089 -3.47126 4.09856 -3.47126 4.09856 -7.31007 3.48203 -7.31007 3.48203 -2.70008 -2.67676 -2.70008 -2.67676 -0.416147 -0.948443 -0.416147 -0.948443 -0.179307 -0.263845 -0.179307 -0.263845 -0.139016 0.0176751 -0.139016 0.0176751 -0.206874 0.216567 -0.206874 0.216567 -0.653644 0.799089 0.799089 -0.1455 4.09856 2.7389 4.09856 2.7389 3.48203 8.00405 3.48203 8.00405 -2.67676 0.468408 -2.67676 0.468408 -0.948443 -0.653644 -0.948443 -0.653644 -0.263845 -1.01846 -0.263845 -1.01846 0.0176751 -0.779352 0.0176751 -0.779352 0.216567 -0.884264 0.216567 -0.884264 0.799089 -0.1455 -0.1455 0.799089 2.7389 44.3117 2.7389 44.3117 8.00405 21.7005 8.00405 21.7005 0.468408 7.00589 0.468408 7.00589 -0.653644 -0.948443 -0.653644 -0.948443 -1.01846 -9.9465 -1.01846 -9.9465 -0.779352 -18.2008 -0.779352 -18.2008 -0.884264 -39.9966 -0.884264 -39.9966 -0.1455 0.799089 0.799089 -0.653644 44.3117 603.563 44.3117 603.563 21.7005 156.882 21.7005 156.882 7.00589 49.6913 7.00589 49.6913 -0.948443 -0.416147 -0.948443 -0.416147 -9.9465 -52.5707 -9.9465 -52.5707 -18.2008 -164.331 -18.2008 -164.331 -39.9966 -607.241 -39.9966 -607.241 0.799089 -0.653644 -0.653644 1 603.563 1643.22 603.563 1643.22 156.882 374.226 156.882 374.226 49.6913 100.994 49.6913 100.994 -0.416147 1 -0.416147 1 -52.5707 -96.6373 -52.5707 -96.6373 -164.331 -366.701 -164.331 -366.701 -607.241 -1638.86 -607.241 -1638.86 -0.653644 1 
SCALARS phi_n double 1
LOOKUP_TABLE default
-0.46028 0.54933 1571.03 482.93 1571.03 482.93 -292.706 -128.011 -292.706 -128.011 -28.144 -17.7529 -28.144 -17.7529 -0.138233 0.573274 -0.138233 0.573274 31.4179 16.9079 31.4179 16.9079 300.357 120.114 300.357 120.114 -1569.2 -484.375 -1569.2 -484.375 -0.46028 0.54933 0.54933 -0.555357 482.93 6.98937 482.93 6.98937 -128.011 -7.61666 -128.011 -7.61666 -17.7529 -5.85796 -17.7529 -5.85796 0.573274 -0.0168679 0.573274 -0.0168679 16.9079 1.23109 16.9079 1.23109 120.114 11.3853 120.114 11.3853 -484.375 -3.8808 -484.375 -3.8808 0.54933 -0.555357 -0.555357 -1.1359 6.98937 -0.0289448 6.98937 -0.0289448 -7.61666 8.52292 -7.61666 8.52292 -5.85796 -2.18725 -5.85796 -2.18725 -0.0168679 -0.631956 -0.0168679 -0.631956 1.23109 -1.31648 1.23109 -1.31648 11.3853 -1.60958 11.3853 -1.60958 -3.8808 -1.53894 -3.8808 -1.53894 -0.555357 -1.1359 -1.1359 -0.555357 -0.0289448 3.27983 -0.0289448 3.27983 8.52292 4.00134 8.52292 4.00134 -2.18725 -4.28942 -2.18725 -4.28942 -0.631956 -0.0168679 -0.631956 -0.0168679 -1.31648 -0.337457 -1.31648 -0.337457 -1.60958 -0.232688 -1.60958 -0.232688 -1.53894 -0.171262 -1.53894 -0.171262 -1.1359 -0.555357 -0.555357 0.54933 3.27983 -1.54158 3.27983 -1.54158 4.00134 -7.82796 4.00134 -7.82796 -4.28942 -0.723608 -4.28942 -0.723608 -0.0168679 0.573274 -0.0168679 0.573274 -0.337457 -0.121405 -0.337457 -0.121405 -0.232688 -0.0689168 -0.232688 -0.0689168 -0.171262 0.0965518 -0.171262 0.0965518 -0.555357 0.54933 0.54933 -0.46028 -1.54158 2.2278 -1.54158 2.2278 -7.82796 8.03918 -7.82796 8.03918 -0.723608 3.7203 -0.723608 3.7203 0.573274 -0.138233 0.573274 -0.138233 -0.121405 -0.446371 -0.121405 -0.446371 -0.0689168 -0.387903 -0.0689168 -0.387903 0.0965518 -0.395014 0.0965518 -0.395014 0.54933 -0.46028 -0.46028 0.54933 2.2278 -1.54158 2.2278 -1.54158 8.03918 -7.82796 8.03918 -7.82796 3.7203 -0.723608 3.7203 -0.723608 -0.138233 0.573274 -0.138233 0.573274 -0.446371 -0.121405 -0.446371 -0.121405 -0.387903 -0.0689168 -0.387903 -0.0689168 -0.395014 0.0965518 -0.395014 0.0965518 -0.46028 0.54933 0.54933 -0.555357 -1.54158 3.27983 -1.54158 3.27983 -7.82796 4.00134 -7.82796 4.00134 -0.723608 -4.28942 -0.723608 -4.28942 0.573274 -0.0168679 0.573274 -0.0168679 -0.121405 -0.337457 -0.121405 -0.337457 -0.0689168 -0.232688 -0.0689168 -0.232688 0.0965518 -0.171262 0.0965518 -0.171262 0.54933 -0.555357 -0.555357 -1.1359 3.27983 -0.0289448 3.27983 -0.0289448 4.00134 8.52292 4.00134 8.52292 -4.28942 -2.18725 -4.28942 -2.18725 -0.0168679 -0.631956 -0.0168679 -0.631956 -0.337457 -1.31648 -0.337457 -1.31648 -0.232688 -1.60958 -0.232688 -1.60958 -0.171262 -1.53894 -0.171262 -1.53894 -0.555357 -1.1359 -1.1359 -0.555357 -0.0289448 6.98937 -0.0289448 6.98937 8.52292 -7.61666 8.52292 -7.61666 -2.18725 -5.85796 -2.18725 -5.85796 -0.631956 -0.0168679 -0.631956 -0.0168679 -1.31648 1.23109 -1.31648 1.23109 -1.60958 11.3853 -1.60958 11.3853 -1.53894 -3.8808 -1.53894 -3.8808 -1.1359 -0.555357 -0.555357 0.54933 6.98937 482.93 6.98937 482.93 -7.61666 -128.011 -7.61666 -128.011 -5.85796 -17.7529 -5.85796 -17.7529 -0.0168679 0.573274 -0.0168679 0.573274 1.23109 16.9079 1.23109 16.9079 11.3853 120.114 11.3853 120.114 -3.8808 -484.375 -3.8808 -484.375 -0.555357 0.54933 0.54933 -0.46028 482.93 1571.03 482.93 1571.03 -128.011 -292.706 -128.011 -292.706 -17.7529 -28.144 -17.7529 -28.144 0.573274 -0.138233 0.573274 -0.138233 16.9079 31.4179 16.9079 31.4179 120.114 300.357 120.114 300.357 -484.375 -1569.2 -484.375 -1569.2 0.54933 -0.46028 
SCALARS alpha double 1
LOOKUP_TABLE default
0.301567 0.301567 0.320066 0.320066 0.320066 0.320066 0.370965 0.370965 0.370965 0.370965 0.42996 0.42996 0.42996 0.42996 0.456118 0.456118 0.456118 0.456118 0.42996 0.42996 0.42996 0.42996 0.370965 0.370965 0.370965 0.370965 0.320066 0.320066 0.320066 0.320066 0.301567 0.301567 0.301567 0.301567 0.320066 0.320066 0.320066 0.320066 0.370965 0.370965 0.370965 0.370965 0.42996 0.42996 0.42996 0.42996 0.456118 0.456118 0.456118 0.456118 0.42996 0.42996 0.42996 0.42996 0.370965 0.370965 0.370965 0.370965 0.320066 0.320066 0.320066 0.320066 0.301567 0.301567 0.301567 0.301567 0.320066 0.320066 0.320066 0.320066 0.370965 0.370965 0.370965 0.370965 0.42996 0.42996 0.42996 0.42996 0.456118 0.456118 0.456118 0.456118 0.42996 0.42996 0.42996 0.42996 0.370965 0.370965 0.370965 0.370965 0.320066 0.320066 0.320066 0.320066 0.301567 0.301567 0.301567 0.301567 0.320066 0.320066 0.320066 0.320066 0.370965 0.370965 0.370965 0.370965 0.42996 0.42996 0.42996 0.42996 0.456118 0.456118 0.456118 0.456118 0.42996 0.42996 0.42996 0.42996 0.370965 0.370965 0.370965 0.370965 0.320066 0.320066 0.320066 0.320066 0.301567 0.301567 0.301567 0.301567 0.320066 0.320066 0.320066 0.320066 0.370965 0.370965 0.370965 0.370965 0.42996 0.42996 0.42996 0.42996 0.456118 0.456118 0.456118 0.456118 0.42996 0.42996 0.42996 0.42996 0.370965 0.370965 0.370965 0.370965 0.320066 0.320066 0.320066 0.320066 0.301567 0.301567 0.301567 0.301567 0.320066 0.320066 0.320066 0.320066 0.370965 0.370965 0.370965 0.370965 0.42996 0.42996 0.42996 0.42996 0.456118 0.456118 0.456118 0.456118 0.42996 0.42996 0.42996 0.42996 0.370965 0.370965 0.370965 0.370965 0.320066 0.320066 0.320066 0.320066 0.301567 0.301567 0.301567 0.301567 0.320066 0.320066 0.320066 0.320066 0.370965 0.370965 0.370965 0.370965 0.42996 0.42996 0.42996 0.42996 0.456118 0.456118 0.456118 0.456118 0.42996 0.42996 0.42996 0.42996 0.370965 0.370965 0.370965 0.370965 0.320066 0.320066 0.320066 0.320066 0.301567 0.301567 0.301567 0.301567 0.320066 0.320066 0.320066 0.320066 0.370965 0.370965 0.370965 0.370965 0.42996 0.42996 0.42996 0.42996 0.456118 0.456118 0.456118 0.456118 0.42996 0.42996 0.42996 0.42996 0.370965 0.370965 0.370965 0.370965 0.320066 0.320066 0.320066 0.320066 0.301567 0.301567 0.301567 0.301567 0.320066 0.320066 0.320066 0.320066 0.370965 0.370965 0.370965 0.370965 0.42996 0.42996 0.42996 0.42996 0.456118 0.456118 0.456118 0.456118 0.42996 0.42996 0.42996 0.42996 0.370965 0.370965 0.370965 0.370965 0.320066 0.320066 0.320066 0.320066 0.301567 0.301567 0.301567 0.301567 0.320066 0.320066 0.320066 0.320066 0.370965 0.370965 0.370965 0.370965 0.42996 0.42996 0.42996 0.42996 0.456118 0.456118 0.456118 0.456118 0.42996 0.42996 0.42996 0.42996 0.370965 0.370965 0.370965 0.370965 0.320066 0.320066 0.320066 0.320066 0.301567 0.301567 0.301567 0.301567 0.320066 0.320066 0.320066 0.320066 0.370965 0.370965 0.370965 0.370965 0.42996 0.42996 0.42996 0.42996 0.456118 0.456118 0.456118 0.456118 0.42996 0.42996 0.42996 0.42996 0.370965 0.370965 0.370965 0.370965 0.320066 0.320066 0.320066 0.320066 0.301567 0.301567 0.301567 0.301567 0.320066 0.320066 0.320066 0.320066 0.370965 0.370965 0.370965 0.370965 0.42996 0.42996 0.42996 0.42996 0.456118 0.456118 0.456118 0.456118 0.42996 0.42996 0.42996 0.42996 0.370965 0.370965 0.370965 0.370965 0.320066 0.320066 0.320066 0.320066 0.301567 0.301567 
SCALARS boundary_type double 1
LOOKUP_TABLE default
1 1 1 1 1 1 1 1 1 1 1 1 1 1 1 1 1 1 1 1 1 1 1 1 1 1 1 1 1 1 1 1 1 1 1 1 1 1 1 1 1 1 1 1 1 1 1 1 1 1 1 1 1 1 1 1 1 1 1 1 1 1 1 1 1 1 1 1 1 1 1 1 1 1 1 1 1 1 1 1 1 1 1 1 1 1 1 1 1 1 1 1 1 1 1 1 1 1 1 1 1 1 1 1 1 1 1 1 1 1 1 1 1 1 1 1 1 1 1 1 1 1 1 1 1 1 1 1 1 1 1 1 1 1 1 1 1 1 1 1 1 1 1 1 1 1 1 1 1 1 1 1 1 1 1 1 1 1 1 1 1 1 1 1 1 1 1 1 1 1 1 1 1 1 1 1 1 1 1 1 1 1 1 1 1 1 1 1 1 1 1 1 1 1 1 1 1 1 1 1 1 1 1 1 1 1 1 1 1 1 1 1 1 1 1 1 1 1 1 1 1 1 1 1 1 1 1 1 1 1 1 1 1 1 1 1 1 1 1 1 1 1 1 1 1 1 1 1 1 1 1 1 1 1 1 1 1 1 1 1 1 1 1 1 1 1 1 1 1 1 1 1 1 1 1 1 1 1 1 1 1 1 1 1 1 1 1 1 1 1 1 1 1 1 1 1 1 1 1 1 1 1 1 1 1 1 1 1 1 1 1 1 1 1 1 1 1 1 1 1 1 1 1 1 1 1 1 1 1 1 1 1 1 1 1 1 1 1 1 1 1 1 1 1 1 1 1 1 1 1 1 1 1 1 1 1 1 1 1 1 1 1 1 1 1 1 1 1 1 1 1 1 1 1 1 1 1 1 1 1 1 1 1 1 
SCALARS phi_exact double 1
LOOKUP_TABLE default
1 -0.653644 1643.22 603.563 1643.22 603.563 374.226 156.882 374.226 156.882 100.994 49.6913 100.994 49.6913 1 -0.416147 1 -0.416147 -96.6373 -52.5707 -96.6373 -52.5707 -366.701 -164.331 -366.701 -164.331 -1638.86 -607.241 -1638.86 -607.241 1 -0.653644 -0.653644 0.799089 603.563 44.3117 603.563 44.3117 156.882 21.7005 156.882 21.7005 49.6913 7.00589 49.6913 7.00589 -0.416147 -0.948443 -0.416147 -0.948443 -52.5707 -9.9465 -52.5707 -9.9465 -164.331 -18.2008 -164.331 -18.2008 -607.241 -39.9966 -607.241 -39.9966 -0.653644 0.799089 0.799089 -0.1455 44.3117 2.7389 44.3117 2.7389 21.7005 8.00405 21.7005 8.00405 7.00589 0.468408 7.00589 0.468408 -0.948443 -0.653644 -0.948443 -0.653644 -9.9465 -1.01846 -9.9465 -1.01846 -18.2008 -0.779352 -18.2008 -0.779352 -39.9966 -0.884264 -39.9966 -0.884264 0.799089 -0.1455 -0.1455 0.799089 2.7389 4.09856 2.7389 4.09856 8.00405 3.48203 8.00405 3.48203 0.468408 -2.67676 0.468408 -2.67676 -0.653644 -0.948443 -0.653644 -0.948443 -1.01846 -0.263845 -1.01846 -0.263845 -0.779352 0.0176751 -0.779352 0.0176751 -0.884264 0.216567 -0.884264 0.216567 -0.1455 0.799089 0.799089 -0.653644 4.09856 -3.47126 4.09856 -3.47126 3.48203 -7.31007 3.48203 -7.31007 -2.67676 -2.70008 -2.67676 -2.70008 -0.948443 -0.416147 -0.948443 -0.416147 -0.263845 -0.179307 -0.263845 -0.179307 0.0176751 -0.139016 0.0176751 -0.139016 0.216567 -0.206874 0.216567 -0.206874 0.799089 -0.653644 -0.653644 1 -3.47126 4.11385 -3.47126 4.11385 -7.31007 7.39131 -7.31007 7.39131 -2.70008 4.12332 -2.70008 4.12332 -0.416147 1 -0.416147 1 -0.179307 0.233046 -0.179307 0.233046 -0.139016 0.133081 -0.139016 0.133081 -0.206874 0.242521 -0.206874 0.242521 -0.653644 1 1 -0.653644 4.11385 -3.47126 4.11385 -3.47126 7.39131 -7.31007 7.39131 -7.31007 4.12332 -2.70008 4.12332 -2.70008 1 -0.416147 1 -0.416147 0.233046 -0.179307 0.233046 -0.179307 0.133081 -0.139016 0.133081 -0.139016 0.242521 -0.206874 0.242521 -0.206874 1 -0.653644 -0.653644 0.799089 -3.47126 4.09856 -3.47126 4.09856 -7.31007 3.48203 -7.31007 3.48203 -2.70008 -2.67676 -2.70008 -2.67676 -0.416147 -0.948443 -0.416147 -0.948443 -0.179307 -0.263845 -0.179307 -0.263845 -0.139016 0.0176751 -0.139016 0.0176751 -0.206874 0.216567 -0.206874 0.216567 -0.653644 0.799089 0.799089 -0.1455 4.09856 2.7389 4.09856 2.7389 3.48203 8.00405 3.48203 8.00405 -2.67676 0.468408 -2.67676 0.468408 -0.948443 -0.653644 -0.948443 -0.653644 -0.263845 -1.01846 -0.263845 -1.01846 0.0176751 -0.779352 0.0176751 -0.779352 0.216567 -0.884264 0.216567 -0.884264 0.799089 -0.1455 -0.1455 0.799089 2.7389 44.3117 2.7389 44.3117 8.00405 21.7005 8.00405 21.7005 0.468408 7.00589 0.468408 7.00589 -0.653644 -0.948443 -0.653644 -0.948443 -1.01846 -9.9465 -1.01846 -9.9465 -0.779352 -18.2008 -0.779352 -18.2008 -0.884264 -39.9966 -0.884264 -39.9966 -0.1455 0.799089 0.799089 -0.653644 44.3117 603.563 44.3117 603.563 21.7005 156.882 21.7005 156.882 7.00589 49.6913 7.00589 49.6913 -0.948443 -0.416147 -0.948443 -0.416147 -9.9465 -52.5707 -9.9465 -52.5707 -18.2008 -164.331 -18.2008 -164.331 -39.9966 -607.241 -39.9966 -607.241 0.799089 -0.653644 -0.653644 1 603.563 1643.22 603.563 1643.22 156.882 374.226 156.882 374.226 49.6913 100.994 49.6913 100.994 -0.416147 1 -0.416147 1 -52.5707 -96.6373 -52.5707 -96.6373 -164.331 -366.701 -164.331 -366.701 -607.241 -1638.86 -607.241 -1638.86 -0.653644 1 
SCALARS phi_n_exact double 1
LOOKUP_TABLE default
0 0.378401 1344.91 437.822 1344.91 437.822 -160.497 -82.4613 -160.497 -82.4613 -54.7811 -27.0748 -54.7811 -27.0748 -6.56388e-15 0.454649 -6.56388e-15 0.454649 57.5177 26.4218 57.5177 26.4218 167.75 75.2802 167.75 75.2802 -1342.17 -439.307 -1342.17 -439.307 0 0.378401 0.378401 -0.520666 437.822 21.2532 437.822 21.2532 -82.4613 -4.92178 -82.4613 -4.92178 -27.0748 -6.18824 -27.0748 -6.18824 0.454649 -0.274484 0.454649 -0.274484 26.4218 2.37274 26.4218 2.37274 75.2802 8.29559 75.2802 8.29559 -439.307 -18.9087 -439.307 -18.9087 0.378401 -0.520666 -0.520666 -0.989358 21.2532 -1.28326 21.2532 -1.28326 -4.92178 6.67861 -4.92178 6.67861 -6.18824 -3.1422 -6.18824 -3.1422 -0.274484 -0.756802 -0.274484 -0.756802 2.37274 -0.259096 2.37274 -0.259096 8.29559 0.286202 8.29559 0.286202 -18.9087 -0.339008 -18.9087 -0.339008 -0.520666 -0.989358 -0.989358 -0.520666 -1.28326 2.52933 -1.28326 2.52933 6.67861 3.41604 6.67861 3.41604 -3.1422 -3.7753 -3.1422 -3.7753 -0.756802 -0.274484 -0.756802 -0.274484 -0.259096 -0.0401993 -0.259096 -0.0401993 0.286202 -0.0422276 0.286202 -0.0422276 -0.339008 -0.184853 -0.339008 -0.184853 -0.989358 -0.520666 -0.520666 0.378401 2.52933 -1.67723 2.52933 -1.67723 3.41604 -7.31741 3.41604 -7.31741 -3.7753 -0.817625 -3.7753 -0.817625 -0.274484 0.454649 -0.274484 0.454649 -0.0401993 0.164649 -0.0401993 0.164649 -0.0422276 0.136285 -0.0422276 0.136285 -0.184853 0.192009 -0.184853 0.192009 -0.520666 0.378401 0.378401 -1.19981e-31 -1.67723 2.90815 -1.67723 2.90815 -7.31741 7.38802 -7.31741 7.38802 -0.817625 2.91675 -0.817625 2.91675 0.454649 1.29194e-16 0.454649 1.29194e-16 0.164649 -0.180155 0.164649 -0.180155 0.136285 -0.134304 0.136285 -0.134304 0.192009 -0.171555 0.192009 -0.171555 0.378401 -1.19981e-31 -1.19981e-31 0.378401 2.90815 -1.67723 2.90815 -1.67723 7.38802 -7.31741 7.38802 -7.31741 2.91675 -0.817625 2.91675 -0.817625 1.29194e-16 0.454649 1.29194e-16 0.454649 -0.180155 0.164649 -0.180155 0.164649 -0.134304 0.136285 -0.134304 0.136285 -0.171555 0.192009 -0.171555 0.192009 -1.19981e-31 0.378401 0.378401 -0.520666 -1.67723 2.52933 -1.67723 2.52933 -7.31741 3.41604 -7.31741 3.41604 -0.817625 -3.7753 -0.817625 -3.7753 0.454649 -0.274484 0.454649 -0.274484 0.164649 -0.0401993 0.164649 -0.0401993 0.136285 -0.0422276 0.136285 -0.0422276 0.192009 -0.184853 0.192009 -0.184853 0.378401 -0.520666 -0.520666 -0.989358 2.52933 -1.28326 2.52933 -1.28326 3.41604 6.67861 3.41604 6.67861 -3.7753 -3.1422 -3.7753 -3.1422 -0.274484 -0.756802 -0.274484 -0.756802 -0.0401993 -0.259096 -0.0401993 -0.259096 -0.0422276 0.286202 -0.0422276 0.286202 -0.184853 -0.339008 -0.184853 -0.339008 -0.520666 -0.989358 -0.989358 -0.520666 -1.28326 21.2532 -1.28326 21.2532 6.67861 -4.92178 6.67861 -4.92178 -3.1422 -6.18824 -3.1422 -6.18824 -0.756802 -0.274484 -0.756802 -0.274484 -0.259096 2.37274 -0.259096 2.37274 0.286202 8.29559 0.286202 8.29559 -0.339008 -18.9087 -0.339008 -18.9087 -0.989358 -0.520666 -0.520666 0.378401 21.2532 437.822 21.2532 437.822 -4.92178 -82.4613 -4.92178 -82.4613 -6.18824 -27.0748 -6.18824 -27.0748 -0.274484 0.454649 -0.274484 0.454649 2.37274 26.4218 2.37274 26.4218 8.29559 75.2802 8.29559 75.2802 -18.9087 -439.307 -18.9087 -439.307 -0.520666 0.378401 0.378401 0 437.822 1344.91 437.822 1344.91 -82.4613 -160.497 -82.4613 -160.497 -27.0748 -54.7811 -27.0748 -54.7811 0.454649 -6.56388e-15 0.454649 -6.56388e-15 26.4218 57.5177 26.4218 57.5177 75.2802 167.75 75.2802 167.75 -439.307 -1342.17 -439.307 -1342.17 0.378401 0 
