# vtk DataFile Version 3.0
#This file was generated by the deal.II library on 2025/2/20 at 11:31:13
ASCII
DATASET UNSTRUCTURED_GRID

POINTS 600 double
-0.397995 0.397995 -0.826559
-0.663325 0.34641 -0.663325
-0.34641 0.663325 -0.663325
-0.57735 0.57735 -0.57735
-0.132665 0.421426 -0.897106
-0.397995 0.397995 -0.826559
-0.11547 0.702377 -0.702377
-0.34641 0.663325 -0.663325
0.132665 0.421426 -0.897106
-0.132665 0.421426 -0.897106
0.11547 0.702377 -0.702377
-0.11547 0.702377 -0.702377
0.397995 0.397995 -0.826559
0.132665 0.421426 -0.897106
0.34641 0.663325 -0.663325
0.11547 0.702377 -0.702377
0.663325 0.34641 -0.663325
0.397995 0.397995 -0.826559
0.57735 0.57735 -0.57735
0.34641 0.663325 -0.663325
-0.421426 0.132665 -0.897106
-0.702377 0.11547 -0.702377
-0.397995 0.397995 -0.826559
-0.663325 0.34641 -0.663325
-0.140475 0.140475 -0.980068
-0.421426 0.132665 -0.897106
-0.132665 0.421426 -0.897106
-0.397995 0.397995 -0.826559
0.140475 0.140475 -0.980068
-0.140475 0.140475 -0.980068
0.132665 0.421426 -0.897106
-0.132665 0.421426 -0.897106
0.421426 0.132665 -0.897106
0.140475 0.140475 -0.980068
0.397995 0.397995 -0.826559
0.132665 0.421426 -0.897106
0.702377 0.11547 -0.702377
0.421426 0.132665 -0.897106
0.663325 0.34641 -0.663325
0.397995 0.397995 -0.826559
-0.421426 -0.132665 -0.897106
-0.702377 -0.11547 -0.702377
-0.421426 0.132665 -0.897106
-0.702377 0.11547 -0.702377
-0.140475 -0.140475 -0.980068
-0.421426 -0.132665 -0.897106
-0.140475 0.140475 -0.980068
-0.421426 0.132665 -0.897106
0.140475 -0.140475 -0.980068
-0.140475 -0.140475 -0.980068
0.140475 0.140475 -0.980068
-0.140475 0.140475 -0.980068
0.421426 -0.132665 -0.897106
0.140475 -0.140475 -0.980068
0.421426 0.132665 -0.897106
0.140475 0.140475 -0.980068
0.702377 -0.11547 -0.702377
0.421426 -0.132665 -0.897106
0.702377 0.11547 -0.702377
0.421426 0.132665 -0.897106
-0.397995 -0.397995 -0.826559
-0.663325 -0.34641 -0.663325
-0.421426 -0.132665 -0.897106
-0.702377 -0.11547 -0.702377
-0.132665 -0.421426 -0.897106
-0.397995 -0.397995 -0.826559
-0.140475 -0.140475 -0.980068
-0.421426 -0.132665 -0.897106
0.132665 -0.421426 -0.897106
-0.132665 -0.421426 -0.897106
0.140475 -0.140475 -0.980068
-0.140475 -0.140475 -0.980068
0.397995 -0.397995 -0.826559
0.132665 -0.421426 -0.897106
0.421426 -0.132665 -0.897106
0.140475 -0.140475 -0.980068
0.663325 -0.34641 -0.663325
0.397995 -0.397995 -0.826559
0.702377 -0.11547 -0.702377
0.421426 -0.132665 -0.897106
-0.34641 -0.663325 -0.663325
-0.57735 -0.57735 -0.57735
-0.397995 -0.397995 -0.826559
-0.663325 -0.34641 -0.663325
-0.11547 -0.702377 -0.702377
-0.34641 -0.663325 -0.663325
-0.132665 -0.421426 -0.897106
-0.397995 -0.397995 -0.826559
0.11547 -0.702377 -0.702377
-0.11547 -0.702377 -0.702377
0.132665 -0.421426 -0.897106
-0.132665 -0.421426 -0.897106
0.34641 -0.663325 -0.663325
0.11547 -0.702377 -0.702377
0.397995 -0.397995 -0.826559
0.132665 -0.421426 -0.897106
0.57735 -0.57735 -0.57735
0.34641 -0.663325 -0.663325
0.663325 -0.34641 -0.663325
0.397995 -0.397995 -0.826559
-0.34641 -0.663325 0.663325
-0.397995 -0.397995 0.826559
-0.57735 -0.57735 0.57735
-0.663325 -0.34641 0.663325
-0.397995 -0.397995 0.826559
-0.421426 -0.132665 0.897106
-0.663325 -0.34641 0.663325
-0.702377 -0.11547 0.702377
-0.421426 -0.132665 0.897106
-0.421426 0.132665 0.897106
-0.702377 -0.11547 0.702377
-0.702377 0.11547 0.702377
-0.421426 0.132665 0.897106
-0.397995 0.397995 0.826559
-0.702377 0.11547 0.702377
-0.663325 0.34641 0.663325
-0.397995 0.397995 0.826559
-0.34641 0.663325 0.663325
-0.663325 0.34641 0.663325
-0.57735 0.57735 0.57735
-0.11547 -0.702377 0.702377
-0.132665 -0.421426 0.897106
-0.34641 -0.663325 0.663325
-0.397995 -0.397995 0.826559
-0.132665 -0.421426 0.897106
-0.140475 -0.140475 0.980068
-0.397995 -0.397995 0.826559
-0.421426 -0.132665 0.897106
-0.140475 -0.140475 0.980068
-0.140475 0.140475 0.980068
-0.421426 -0.132665 0.897106
-0.421426 0.132665 0.897106
-0.140475 0.140475 0.980068
-0.132665 0.421426 0.897106
-0.421426 0.132665 0.897106
-0.397995 0.397995 0.826559
-0.132665 0.421426 0.897106
-0.11547 0.702377 0.702377
-0.397995 0.397995 0.826559
-0.34641 0.663325 0.663325
0.11547 -0.702377 0.702377
0.132665 -0.421426 0.897106
-0.11547 -0.702377 0.702377
-0.132665 -0.421426 0.897106
0.132665 -0.421426 0.897106
0.140475 -0.140475 0.980068
-0.132665 -0.421426 0.897106
-0.140475 -0.140475 0.980068
0.140475 -0.140475 0.980068
0.140475 0.140475 0.980068
-0.140475 -0.140475 0.980068
-0.140475 0.140475 0.980068
0.140475 0.140475 0.980068
0.132665 0.421426 0.897106
-0.140475 0.140475 0.980068
-0.132665 0.421426 0.897106
0.132665 0.421426 0.897106
0.11547 0.702377 0.702377
-0.132665 0.421426 0.897106
-0.11547 0.702377 0.702377
0.34641 -0.663325 0.663325
0.397995 -0.397995 0.826559
0.11547 -0.702377 0.702377
0.132665 -0.421426 0.897106
0.397995 -0.397995 0.826559
0.421426 -0.132665 0.897106
0.132665 -0.421426 0.897106
0.140475 -0.140475 0.980068
0.421426 -0.132665 0.897106
0.421426 0.132665 0.897106
0.140475 -0.140475 0.980068
0.140475 0.140475 0.980068
0.421426 0.132665 0.897106
0.397995 0.397995 0.826559
0.140475 0.140475 0.980068
0.132665 0.421426 0.897106
0.397995 0.397995 0.826559
0.34641 0.663325 0.663325
0.132665 0.421426 0.897106
0.11547 0.702377 0.702377
0.57735 -0.57735 0.57735
0.663325 -0.34641 0.663325
0.34641 -0.663325 0.663325
0.397995 -0.397995 0.826559
0.663325 -0.34641 0.663325
0.702377 -0.11547 0.702377
0.397995 -0.397995 0.826559
0.421426 -0.132665 0.897106
0.702377 -0.11547 0.702377
0.702377 0.11547 0.702377
0.421426 -0.132665 0.897106
0.421426 0.132665 0.897106
0.702377 0.11547 0.702377
0.663325 0.34641 0.663325
0.421426 0.132665 0.897106
0.397995 0.397995 0.826559
0.663325 0.34641 0.663325
0.57735 0.57735 0.57735
0.397995 0.397995 0.826559
0.34641 0.663325 0.663325
-0.397995 -0.826559 -0.397995
-0.663325 -0.663325 -0.34641
-0.34641 -0.663325 -0.663325
-0.57735 -0.57735 -0.57735
-0.421426 -0.897106 -0.132665
-0.702377 -0.702377 -0.11547
-0.397995 -0.826559 -0.397995
-0.663325 -0.663325 -0.34641
-0.421426 -0.897106 0.132665
-0.702377 -0.702377 0.11547
-0.421426 -0.897106 -0.132665
-0.702377 -0.702377 -0.11547
-0.397995 -0.826559 0.397995
-0.663325 -0.663325 0.34641
-0.421426 -0.897106 0.132665
-0.702377 -0.702377 0.11547
-0.34641 -0.663325 0.663325
-0.57735 -0.57735 0.57735
-0.397995 -0.826559 0.397995
-0.663325 -0.663325 0.34641
-0.132665 -0.897106 -0.421426
-0.397995 -0.826559 -0.397995
-0.11547 -0.702377 -0.702377
-0.34641 -0.663325 -0.663325
-0.140475 -0.980068 -0.140475
-0.421426 -0.897106 -0.132665
-0.132665 -0.897106 -0.421426
-0.397995 -0.826559 -0.397995
-0.140475 -0.980068 0.140475
-0.421426 -0.897106 0.132665
-0.140475 -0.980068 -0.140475
-0.421426 -0.897106 -0.132665
-0.132665 -0.897106 0.421426
-0.397995 -0.826559 0.397995
-0.140475 -0.980068 0.140475
-0.421426 -0.897106 0.132665
-0.11547 -0.702377 0.702377
-0.34641 -0.663325 0.663325
-0.132665 -0.897106 0.421426
-0.397995 -0.826559 0.397995
0.132665 -0.897106 -0.421426
-0.132665 -0.897106 -0.421426
0.11547 -0.702377 -0.702377
-0.11547 -0.702377 -0.702377
0.140475 -0.980068 -0.140475
-0.140475 -0.980068 -0.140475
0.132665 -0.897106 -0.421426
-0.132665 -0.897106 -0.421426
0.140475 -0.980068 0.140475
-0.140475 -0.980068 0.140475
0.140475 -0.980068 -0.140475
-0.140475 -0.980068 -0.140475
0.132665 -0.897106 0.421426
-0.132665 -0.897106 0.421426
0.140475 -0.980068 0.140475
-0.140475 -0.980068 0.140475
0.11547 -0.702377 0.702377
-0.11547 -0.702377 0.702377
0.132665 -0.897106 0.421426
-0.132665 -0.897106 0.421426
0.397995 -0.826559 -0.397995
0.132665 -0.897106 -0.421426
0.34641 -0.663325 -0.663325
0.11547 -0.702377 -0.702377
0.421426 -0.897106 -0.132665
0.140475 -0.980068 -0.140475
0.397995 -0.826559 -0.397995
0.132665 -0.897106 -0.421426
0.421426 -0.897106 0.132665
0.140475 -0.980068 0.140475
0.421426 -0.897106 -0.132665
0.140475 -0.980068 -0.140475
0.397995 -0.826559 0.397995
0.132665 -0.897106 0.421426
0.421426 -0.897106 0.132665
0.140475 -0.980068 0.140475
0.34641 -0.663325 0.663325
0.11547 -0.702377 0.702377
0.397995 -0.826559 0.397995
0.132665 -0.897106 0.421426
0.663325 -0.663325 -0.34641
0.397995 -0.826559 -0.397995
0.57735 -0.57735 -0.57735
0.34641 -0.663325 -0.663325
0.702377 -0.702377 -0.11547
0.421426 -0.897106 -0.132665
0.663325 -0.663325 -0.34641
0.397995 -0.826559 -0.397995
0.702377 -0.702377 0.11547
0.421426 -0.897106 0.132665
0.702377 -0.702377 -0.11547
0.421426 -0.897106 -0.132665
0.663325 -0.663325 0.34641
0.397995 -0.826559 0.397995
0.702377 -0.702377 0.11547
0.421426 -0.897106 0.132665
0.57735 -0.57735 0.57735
0.34641 -0.663325 0.663325
0.663325 -0.663325 0.34641
0.397995 -0.826559 0.397995
0.663325 0.663325 -0.34641
0.57735 0.57735 -0.57735
0.397995 0.826559 -0.397995
0.34641 0.663325 -0.663325
0.702377 0.702377 -0.11547
0.663325 0.663325 -0.34641
0.421426 0.897106 -0.132665
0.397995 0.826559 -0.397995
0.702377 0.702377 0.11547
0.702377 0.702377 -0.11547
0.421426 0.897106 0.132665
0.421426 0.897106 -0.132665
0.663325 0.663325 0.34641
0.702377 0.702377 0.11547
0.397995 0.826559 0.397995
0.421426 0.897106 0.132665
0.57735 0.57735 0.57735
0.663325 0.663325 0.34641
0.34641 0.663325 0.663325
0.397995 0.826559 0.397995
0.397995 0.826559 -0.397995
0.34641 0.663325 -0.663325
0.132665 0.897106 -0.421426
0.11547 0.702377 -0.702377
0.421426 0.897106 -0.132665
0.397995 0.826559 -0.397995
0.140475 0.980068 -0.140475
0.132665 0.897106 -0.421426
0.421426 0.897106 0.132665
0.421426 0.897106 -0.132665
0.140475 0.980068 0.140475
0.140475 0.980068 -0.140475
0.397995 0.826559 0.397995
0.421426 0.897106 0.132665
0.132665 0.897106 0.421426
0.140475 0.980068 0.140475
0.34641 0.663325 0.663325
0.397995 0.826559 0.397995
0.11547 0.702377 0.702377
0.132665 0.897106 0.421426
0.132665 0.897106 -0.421426
0.11547 0.702377 -0.702377
-0.132665 0.897106 -0.421426
-0.11547 0.702377 -0.702377
0.140475 0.980068 -0.140475
0.132665 0.897106 -0.421426
-0.140475 0.980068 -0.140475
-0.132665 0.897106 -0.421426
0.140475 0.980068 0.140475
0.140475 0.980068 -0.140475
-0.140475 0.980068 0.140475
-0.140475 0.980068 -0.140475
0.132665 0.897106 0.421426
0.140475 0.980068 0.140475
-0.132665 0.897106 0.421426
-0.140475 0.980068 0.140475
0.11547 0.702377 0.702377
0.132665 0.897106 0.421426
-0.11547 0.702377 0.702377
-0.132665 0.897106 0.421426
-0.132665 0.897106 -0.421426
-0.11547 0.702377 -0.702377
-0.397995 0.826559 -0.397995
-0.34641 0.663325 -0.663325
-0.140475 0.980068 -0.140475
-0.132665 0.897106 -0.421426
-0.421426 0.897106 -0.132665
-0.397995 0.826559 -0.397995
-0.140475 0.980068 0.140475
-0.140475 0.980068 -0.140475
-0.421426 0.897106 0.132665
-0.421426 0.897106 -0.132665
-0.132665 0.897106 0.421426
-0.140475 0.980068 0.140475
-0.397995 0.826559 0.397995
-0.421426 0.897106 0.132665
-0.11547 0.702377 0.702377
-0.132665 0.897106 0.421426
-0.34641 0.663325 0.663325
-0.397995 0.826559 0.397995
-0.397995 0.826559 -0.397995
-0.34641 0.663325 -0.663325
-0.663325 0.663325 -0.34641
-0.57735 0.57735 -0.57735
-0.421426 0.897106 -0.132665
-0.397995 0.826559 -0.397995
-0.702377 0.702377 -0.11547
-0.663325 0.663325 -0.34641
-0.421426 0.897106 0.132665
-0.421426 0.897106 -0.132665
-0.702377 0.702377 0.11547
-0.702377 0.702377 -0.11547
-0.397995 0.826559 0.397995
-0.421426 0.897106 0.132665
-0.663325 0.663325 0.34641
-0.702377 0.702377 0.11547
-0.34641 0.663325 0.663325
-0.397995 0.826559 0.397995
-0.57735 0.57735 0.57735
-0.663325 0.663325 0.34641
-0.826559 0.397995 -0.397995
-0.663325 0.663325 -0.34641
-0.663325 0.34641 -0.663325
-0.57735 0.57735 -0.57735
-0.897106 0.421426 -0.132665
-0.702377 0.702377 -0.11547
-0.826559 0.397995 -0.397995
-0.663325 0.663325 -0.34641
-0.897106 0.421426 0.132665
-0.702377 0.702377 0.11547
-0.897106 0.421426 -0.132665
-0.702377 0.702377 -0.11547
-0.826559 0.397995 0.397995
-0.663325 0.663325 0.34641
-0.897106 0.421426 0.132665
-0.702377 0.702377 0.11547
-0.663325 0.34641 0.663325
-0.57735 0.57735 0.57735
-0.826559 0.397995 0.397995
-0.663325 0.663325 0.34641
-0.897106 0.132665 -0.421426
-0.826559 0.397995 -0.397995
-0.702377 0.11547 -0.702377
-0.663325 0.34641 -0.663325
-0.980068 0.140475 -0.140475
-0.897106 0.421426 -0.132665
-0.897106 0.132665 -0.421426
-0.826559 0.397995 -0.397995
-0.980068 0.140475 0.140475
-0.897106 0.421426 0.132665
-0.980068 0.140475 -0.140475
-0.897106 0.421426 -0.132665
-0.897106 0.132665 0.421426
-0.826559 0.397995 0.397995
-0.980068 0.140475 0.140475
-0.897106 0.421426 0.132665
-0.702377 0.11547 0.702377
-0.663325 0.34641 0.663325
-0.897106 0.132665 0.421426
-0.826559 0.397995 0.397995
-0.897106 -0.132665 -0.421426
-0.897106 0.132665 -0.421426
-0.702377 -0.11547 -0.702377
-0.702377 0.11547 -0.702377
-0.980068 -0.140475 -0.140475
-0.980068 0.140475 -0.140475
-0.897106 -0.132665 -0.421426
-0.897106 0.132665 -0.421426
-0.980068 -0.140475 0.140475
-0.980068 0.140475 0.140475
-0.980068 -0.140475 -0.140475
-0.980068 0.140475 -0.140475
-0.897106 -0.132665 0.421426
-0.897106 0.132665 0.421426
-0.980068 -0.140475 0.140475
-0.980068 0.140475 0.140475
-0.702377 -0.11547 0.702377
-0.702377 0.11547 0.702377
-0.897106 -0.132665 0.421426
-0.897106 0.132665 0.421426
-0.826559 -0.397995 -0.397995
-0.897106 -0.132665 -0.421426
-0.663325 -0.34641 -0.663325
-0.702377 -0.11547 -0.702377
-0.897106 -0.421426 -0.132665
-0.980068 -0.140475 -0.140475
-0.826559 -0.397995 -0.397995
-0.897106 -0.132665 -0.421426
-0.897106 -0.421426 0.132665
-0.980068 -0.140475 0.140475
-0.897106 -0.421426 -0.132665
-0.980068 -0.140475 -0.140475
-0.826559 -0.397995 0.397995
-0.897106 -0.132665 0.421426
-0.897106 -0.421426 0.132665
-0.980068 -0.140475 0.140475
-0.663325 -0.34641 0.663325
-0.702377 -0.11547 0.702377
-0.826559 -0.397995 0.397995
-0.897106 -0.132665 0.421426
-0.663325 -0.663325 -0.34641
-0.826559 -0.397995 -0.397995
-0.57735 -0.57735 -0.57735
-0.663325 -0.34641 -0.663325
-0.702377 -0.702377 -0.11547
-0.897106 -0.421426 -0.132665
-0.663325 -0.663325 -0.34641
-0.826559 -0.397995 -0.397995
-0.702377 -0.702377 0.11547
-0.897106 -0.421426 0.132665
-0.702377 -0.702377 -0.11547
-0.897106 -0.421426 -0.132665
-0.663325 -0.663325 0.34641
-0.826559 -0.397995 0.397995
-0.702377 -0.702377 0.11547
-0.897106 -0.421426 0.132665
-0.57735 -0.57735 0.57735
-0.663325 -0.34641 0.663325
-0.663325 -0.663325 0.34641
-0.826559 -0.397995 0.397995
0.663325 -0.663325 -0.34641
0.57735 -0.57735 -0.57735
0.826559 -0.397995 -0.397995
0.663325 -0.34641 -0.663325
0.702377 -0.702377 -0.11547
0.663325 -0.663325 -0.34641
0.897106 -0.421426 -0.132665
0.826559 -0.397995 -0.397995
0.702377 -0.702377 0.11547
0.702377 -0.702377 -0.11547
0.897106 -0.421426 0.132665
0.897106 -0.421426 -0.132665
0.663325 -0.663325 0.34641
0.702377 -0.702377 0.11547
0.826559 -0.397995 0.397995
0.897106 -0.421426 0.132665
0.57735 -0.57735 0.57735
0.663325 -0.663325 0.34641
0.663325 -0.34641 0.663325
0.826559 -0.397995 0.397995
0.826559 -0.397995 -0.397995
0.663325 -0.34641 -0.663325
0.897106 -0.132665 -0.421426
0.702377 -0.11547 -0.702377
0.897106 -0.421426 -0.132665
0.826559 -0.397995 -0.397995
0.980068 -0.140475 -0.140475
0.897106 -0.132665 -0.421426
0.897106 -0.421426 0.132665
0.897106 -0.421426 -0.132665
0.980068 -0.140475 0.140475
0.980068 -0.140475 -0.140475
0.826559 -0.397995 0.397995
0.897106 -0.421426 0.132665
0.897106 -0.132665 0.421426
0.980068 -0.140475 0.140475
0.663325 -0.34641 0.663325
0.826559 -0.397995 0.397995
0.702377 -0.11547 0.702377
0.897106 -0.132665 0.421426
0.897106 -0.132665 -0.421426
0.702377 -0.11547 -0.702377
0.897106 0.132665 -0.421426
0.702377 0.11547 -0.702377
0.980068 -0.140475 -0.140475
0.897106 -0.132665 -0.421426
0.980068 0.140475 -0.140475
0.897106 0.132665 -0.421426
0.980068 -0.140475 0.140475
0.980068 -0.140475 -0.140475
0.980068 0.140475 0.140475
0.980068 0.140475 -0.140475
0.897106 -0.132665 0.421426
0.980068 -0.140475 0.140475
0.897106 0.132665 0.421426
0.980068 0.140475 0.140475
0.702377 -0.11547 0.702377
0.897106 -0.132665 0.421426
0.702377 0.11547 0.702377
0.897106 0.132665 0.421426
0.897106 0.132665 -0.421426
0.702377 0.11547 -0.702377
0.826559 0.397995 -0.397995
0.663325 0.34641 -0.663325
0.980068 0.140475 -0.140475
0.897106 0.132665 -0.421426
0.897106 0.421426 -0.132665
0.826559 0.397995 -0.397995
0.980068 0.140475 0.140475
0.980068 0.140475 -0.140475
0.897106 0.421426 0.132665
0.897106 0.421426 -0.132665
0.897106 0.132665 0.421426
0.980068 0.140475 0.140475
0.826559 0.397995 0.397995
0.897106 0.421426 0.132665
0.702377 0.11547 0.702377
0.897106 0.132665 0.421426
0.663325 0.34641 0.663325
0.826559 0.397995 0.397995
0.826559 0.397995 -0.397995
0.663325 0.34641 -0.663325
0.663325 0.663325 -0.34641
0.57735 0.57735 -0.57735
0.897106 0.421426 -0.132665
0.826559 0.397995 -0.397995
0.702377 0.702377 -0.11547
0.663325 0.663325 -0.34641
0.897106 0.421426 0.132665
0.897106 0.421426 -0.132665
0.702377 0.702377 0.11547
0.702377 0.702377 -0.11547
0.826559 0.397995 0.397995
0.897106 0.421426 0.132665
0.663325 0.663325 0.34641
0.702377 0.702377 0.11547
0.663325 0.34641 0.663325
0.826559 0.397995 0.397995
0.57735 0.57735 0.57735
0.663325 0.663325 0.34641

CELLS 150 750
4	0	1	3	2
4	4	5	7	6
4	8	9	11	10
4	12	13	15	14
4	16	17	19	18
4	20	21	23	22
4	24	25	27	26
4	28	29	31	30
4	32	33	35	34
4	36	37	39	38
4	40	41	43	42
4	44	45	47	46
4	48	49	51	50
4	52	53	55	54
4	56	57	59	58
4	60	61	63	62
4	64	65	67	66
4	68	69	71	70
4	72	73	75	74
4	76	77	79	78
4	80	81	83	82
4	84	85	87	86
4	88	89	91	90
4	92	93	95	94
4	96	97	99	98
4	100	101	103	102
4	104	105	107	106
4	108	109	111	110
4	112	113	115	114
4	116	117	119	118
4	120	121	123	122
4	124	125	127	126
4	128	129	131	130
4	132	133	135	134
4	136	137	139	138
4	140	141	143	142
4	144	145	147	146
4	148	149	151	150
4	152	153	155	154
4	156	157	159	158
4	160	161	163	162
4	164	165	167	166
4	168	169	171	170
4	172	173	175	174
4	176	177	179	178
4	180	181	183	182
4	184	185	187	186
4	188	189	191	190
4	192	193	195	194
4	196	197	199	198
4	200	201	203	202
4	204	205	207	206
4	208	209	211	210
4	212	213	215	214
4	216	217	219	218
4	220	221	223	222
4	224	225	227	226
4	228	229	231	230
4	232	233	235	234
4	236	237	239	238
4	240	241	243	242
4	244	245	247	246
4	248	249	251	250
4	252	253	255	254
4	256	257	259	258
4	260	261	263	262
4	264	265	267	266
4	268	269	271	270
4	272	273	275	274
4	276	277	279	278
4	280	281	283	282
4	284	285	287	286
4	288	289	291	290
4	292	293	295	294
4	296	297	299	298
4	300	301	303	302
4	304	305	307	306
4	308	309	311	310
4	312	313	315	314
4	316	317	319	318
4	320	321	323	322
4	324	325	327	326
4	328	329	331	330
4	332	333	335	334
4	336	337	339	338
4	340	341	343	342
4	344	345	347	346
4	348	349	351	350
4	352	353	355	354
4	356	357	359	358
4	360	361	363	362
4	364	365	367	366
4	368	369	371	370
4	372	373	375	374
4	376	377	379	378
4	380	381	383	382
4	384	385	387	386
4	388	389	391	390
4	392	393	395	394
4	396	397	399	398
4	400	401	403	402
4	404	405	407	406
4	408	409	411	410
4	412	413	415	414
4	416	417	419	418
4	420	421	423	422
4	424	425	427	426
4	428	429	431	430
4	432	433	435	434
4	436	437	439	438
4	440	441	443	442
4	444	445	447	446
4	448	449	451	450
4	452	453	455	454
4	456	457	459	458
4	460	461	463	462
4	464	465	467	466
4	468	469	471	470
4	472	473	475	474
4	476	477	479	478
4	480	481	483	482
4	484	485	487	486
4	488	489	491	490
4	492	493	495	494
4	496	497	499	498
4	500	501	503	502
4	504	505	507	506
4	508	509	511	510
4	512	513	515	514
4	516	517	519	518
4	520	521	523	522
4	524	525	527	526
4	528	529	531	530
4	532	533	535	534
4	536	537	539	538
4	540	541	543	542
4	544	545	547	546
4	548	549	551	550
4	552	553	555	554
4	556	557	559	558
4	560	561	563	562
4	564	565	567	566
4	568	569	571	570
4	572	573	575	574
4	576	577	579	578
4	580	581	583	582
4	584	585	587	586
4	588	589	591	590
4	592	593	595	594
4	596	597	599	598

CELL_TYPES 150
 9 9 9 9 9 9 9 9 9 9 9 9 9 9 9 9 9 9 9 9 9 9 9 9 9 9 9 9 9 9 9 9 9 9 9 9 9 9 9 9 9 9 9 9 9 9 9 9 9 9 9 9 9 9 9 9 9 9 9 9 9 9 9 9 9 9 9 9 9 9 9 9 9 9 9 9 9 9 9 9 9 9 9 9 9 9 9 9 9 9 9 9 9 9 9 9 9 9 9 9 9 9 9 9 9 9 9 9 9 9 9 9 9 9 9 9 9 9 9 9 9 9 9 9 9 9 9 9 9 9 9 9 9 9 9 9 9 9 9 9 9 9 9 9 9 9 9 9 9 9
POINT_DATA 600
SCALARS phi double 1
LOOKUP_TABLE default
-1.0496 -0.32 -0.32 0 -1.4144 -1.0496 -0.48 -0.32 -1.4144 -1.4144 -0.48 -0.48 -1.0496 -1.4144 -0.32 -0.48 -0.32 -1.0496 0 -0.32 -1.4144 -0.48 -1.0496 -0.32 -1.8816 -1.4144 -1.4144 -1.0496 -1.8816 -1.8816 -1.4144 -1.4144 -1.4144 -1.8816 -1.0496 -1.4144 -0.48 -1.4144 -0.32 -1.0496 -1.4144 -0.48 -1.4144 -0.48 -1.8816 -1.4144 -1.8816 -1.4144 -1.8816 -1.8816 -1.8816 -1.8816 -1.4144 -1.8816 -1.4144 -1.8816 -0.48 -1.4144 -0.48 -1.4144 -1.0496 -0.32 -1.4144 -0.48 -1.4144 -1.0496 -1.8816 -1.4144 -1.4144 -1.4144 -1.8816 -1.8816 -1.0496 -1.4144 -1.4144 -1.8816 -0.32 -1.0496 -0.48 -1.4144 -0.32 0 -1.0496 -0.32 -0.48 -0.32 -1.4144 -1.0496 -0.48 -0.48 -1.4144 -1.4144 -0.32 -0.48 -1.0496 -1.4144 0 -0.32 -0.32 -1.0496 -0.32 -1.0496 0 -0.32 -1.0496 -1.4144 -0.32 -0.48 -1.4144 -1.4144 -0.48 -0.48 -1.4144 -1.0496 -0.48 -0.32 -1.0496 -0.32 -0.32 0 -0.48 -1.4144 -0.32 -1.0496 -1.4144 -1.8816 -1.0496 -1.4144 -1.8816 -1.8816 -1.4144 -1.4144 -1.8816 -1.4144 -1.4144 -1.0496 -1.4144 -0.48 -1.0496 -0.32 -0.48 -1.4144 -0.48 -1.4144 -1.4144 -1.8816 -1.4144 -1.8816 -1.8816 -1.8816 -1.8816 -1.8816 -1.8816 -1.4144 -1.8816 -1.4144 -1.4144 -0.48 -1.4144 -0.48 -0.32 -1.0496 -0.48 -1.4144 -1.0496 -1.4144 -1.4144 -1.8816 -1.4144 -1.4144 -1.8816 -1.8816 -1.4144 -1.0496 -1.8816 -1.4144 -1.0496 -0.32 -1.4144 -0.48 0 -0.32 -0.32 -1.0496 -0.32 -0.48 -1.0496 -1.4144 -0.48 -0.48 -1.4144 -1.4144 -0.48 -0.32 -1.4144 -1.0496 -0.32 0 -1.0496 -0.32 0.5248 0.64 -0.32 0 0.9472 0.96 0.5248 0.64 0.9472 0.96 0.9472 0.96 0.5248 0.64 0.9472 0.96 -0.32 0 0.5248 0.64 0.4672 0.5248 -0.48 -0.32 0.9408 0.9472 0.4672 0.5248 0.9408 0.9472 0.9408 0.9472 0.4672 0.5248 0.9408 0.9472 -0.48 -0.32 0.4672 0.5248 0.4672 0.4672 -0.48 -0.48 0.9408 0.9408 0.4672 0.4672 0.9408 0.9408 0.9408 0.9408 0.4672 0.4672 0.9408 0.9408 -0.48 -0.48 0.4672 0.4672 0.5248 0.4672 -0.32 -0.48 0.9472 0.9408 0.5248 0.4672 0.9472 0.9408 0.9472 0.9408 0.5248 0.4672 0.9472 0.9408 -0.32 -0.48 0.5248 0.4672 0.64 0.5248 0 -0.32 0.96 0.9472 0.64 0.5248 0.96 0.9472 0.96 0.9472 0.64 0.5248 0.96 0.9472 0 -0.32 0.64 0.5248 0.64 0 0.5248 -0.32 0.96 0.64 0.9472 0.5248 0.96 0.96 0.9472 0.9472 0.64 0.96 0.5248 0.9472 0 0.64 -0.32 0.5248 0.5248 -0.32 0.4672 -0.48 0.9472 0.5248 0.9408 0.4672 0.9472 0.9472 0.9408 0.9408 0.5248 0.9472 0.4672 0.9408 -0.32 0.5248 -0.48 0.4672 0.4672 -0.48 0.4672 -0.48 0.9408 0.4672 0.9408 0.4672 0.9408 0.9408 0.9408 0.9408 0.4672 0.9408 0.4672 0.9408 -0.48 0.4672 -0.48 0.4672 0.4672 -0.48 0.5248 -0.32 0.9408 0.4672 0.9472 0.5248 0.9408 0.9408 0.9472 0.9472 0.4672 0.9408 0.5248 0.9472 -0.48 0.4672 -0.32 0.5248 0.5248 -0.32 0.64 0 0.9472 0.5248 0.96 0.64 0.9472 0.9472 0.96 0.96 0.5248 0.9472 0.64 0.96 -0.32 0.5248 0 0.64 0.5248 0.64 -0.32 0 0.9472 0.96 0.5248 0.64 0.9472 0.96 0.9472 0.96 0.5248 0.64 0.9472 0.96 -0.32 0 0.5248 0.64 0.4672 0.5248 -0.48 -0.32 0.9408 0.9472 0.4672 0.5248 0.9408 0.9472 0.9408 0.9472 0.4672 0.5248 0.9408 0.9472 -0.48 -0.32 0.4672 0.5248 0.4672 0.4672 -0.48 -0.48 0.9408 0.9408 0.4672 0.4672 0.9408 0.9408 0.9408 0.9408 0.4672 0.4672 0.9408 0.9408 -0.48 -0.48 0.4672 0.4672 0.5248 0.4672 -0.32 -0.48 0.9472 0.9408 0.5248 0.4672 0.9472 0.9408 0.9472 0.9408 0.5248 0.4672 0.9472 0.9408 -0.32 -0.48 0.5248 0.4672 0.64 0.5248 0 -0.32 0.96 0.9472 0.64 0.5248 0.96 0.9472 0.96 0.9472 0.64 0.5248 0.96 0.9472 0 -0.32 0.64 0.5248 0.64 0 0.5248 -0.32 0.96 0.64 0.9472 0.5248 0.96 0.96 0.9472 0.9472 0.64 0.96 0.5248 0.9472 0 0.64 -0.32 0.5248 0.5248 -0.32 0.4672 -0.48 0.9472 0.5248 0.9408 0.4672 0.9472 0.9472 0.9408 0.9408 0.5248 0.9472 0.4672 0.9408 -0.32 0.5248 -0.48 0.4672 0.4672 -0.48 0.4672 -0.48 0.9408 0.4672 0.9408 0.4672 0.9408 0.9408 0.9408 0.9408 0.4672 0.9408 0.4672 0.9408 -0.48 0.4672 -0.48 0.4672 0.4672 -0.48 0.5248 -0.32 0.9408 0.4672 0.9472 0.5248 0.9408 0.9408 0.9472 0.9472 0.4672 0.9408 0.5248 0.9472 -0.48 0.4672 -0.32 0.5248 0.5248 -0.32 0.64 0 0.9472 0.5248 0.96 0.64 0.9472 0.9472 0.96 0.96 0.5248 0.9472 0.64 0.96 -0.32 0.5248 0 0.64 
SCALARS phi_n double 1
LOOKUP_TABLE default
-2.11426 -0.654035 -0.654035 -1.23156e-12 -2.8529 -2.11426 -0.965171 -0.654035 -2.8529 -2.8529 -0.965171 -0.965171 -2.11426 -2.8529 -0.654035 -0.965171 -0.654035 -2.11426 -1.23816e-12 -0.654035 -2.8529 -0.965171 -2.11426 -0.654035 -3.8302 -2.8529 -2.8529 -2.11426 -3.8302 -3.8302 -2.8529 -2.8529 -2.8529 -3.8302 -2.11426 -2.8529 -0.965171 -2.8529 -0.654035 -2.11426 -2.8529 -0.965171 -2.8529 -0.965171 -3.8302 -2.8529 -3.8302 -2.8529 -3.8302 -3.8302 -3.8302 -3.8302 -2.8529 -3.8302 -2.8529 -3.8302 -0.965171 -2.8529 -0.965171 -2.8529 -2.11426 -0.654035 -2.8529 -0.965171 -2.8529 -2.11426 -3.8302 -2.8529 -2.8529 -2.8529 -3.8302 -3.8302 -2.11426 -2.8529 -2.8529 -3.8302 -0.654035 -2.11426 -0.965171 -2.8529 -0.654035 -1.24295e-12 -2.11426 -0.654035 -0.965171 -0.654035 -2.8529 -2.11426 -0.965171 -0.965171 -2.8529 -2.8529 -0.654035 -0.965171 -2.11426 -2.8529 -1.23399e-12 -0.654035 -0.654035 -2.11426 -0.654035 -2.11426 1.21989e-12 -0.654035 -2.11426 -2.8529 -0.654035 -0.965171 -2.8529 -2.8529 -0.965171 -0.965171 -2.8529 -2.11426 -0.965171 -0.654035 -2.11426 -0.654035 -0.654035 1.23516e-12 -0.965171 -2.8529 -0.654035 -2.11426 -2.8529 -3.8302 -2.11426 -2.8529 -3.8302 -3.8302 -2.8529 -2.8529 -3.8302 -2.8529 -2.8529 -2.11426 -2.8529 -0.965171 -2.11426 -0.654035 -0.965171 -2.8529 -0.965171 -2.8529 -2.8529 -3.8302 -2.8529 -3.8302 -3.8302 -3.8302 -3.8302 -3.8302 -3.8302 -2.8529 -3.8302 -2.8529 -2.8529 -0.965171 -2.8529 -0.965171 -0.654035 -2.11426 -0.965171 -2.8529 -2.11426 -2.8529 -2.8529 -3.8302 -2.8529 -2.8529 -3.8302 -3.8302 -2.8529 -2.11426 -3.8302 -2.8529 -2.11426 -0.654035 -2.8529 -0.965171 1.2503e-12 -0.654035 -0.654035 -2.11426 -0.654035 -0.965171 -2.11426 -2.8529 -0.965171 -0.965171 -2.8529 -2.8529 -0.965171 -0.654035 -2.8529 -2.11426 -0.654035 1.22486e-12 -2.11426 -0.654035 1.05713 1.30807 -0.654035 -1.24295e-12 1.91806 1.93034 1.05713 1.30807 1.91806 1.93034 1.91806 1.93034 1.05713 1.30807 1.91806 1.93034 -0.654035 1.21989e-12 1.05713 1.30807 0.934841 1.05713 -0.965171 -0.654035 1.9151 1.91806 0.934841 1.05713 1.9151 1.91806 1.9151 1.91806 0.934841 1.05713 1.9151 1.91806 -0.965171 -0.654035 0.934841 1.05713 0.934841 0.934841 -0.965171 -0.965171 1.9151 1.9151 0.934841 0.934841 1.9151 1.9151 1.9151 1.9151 0.934841 0.934841 1.9151 1.9151 -0.965171 -0.965171 0.934841 0.934841 1.05713 0.934841 -0.654035 -0.965171 1.91806 1.9151 1.05713 0.934841 1.91806 1.9151 1.91806 1.9151 1.05713 0.934841 1.91806 1.9151 -0.654035 -0.965171 1.05713 0.934841 1.30807 1.05713 -1.23399e-12 -0.654035 1.93034 1.91806 1.30807 1.05713 1.93034 1.91806 1.93034 1.91806 1.30807 1.05713 1.93034 1.91806 1.2503e-12 -0.654035 1.30807 1.05713 1.30807 -1.23816e-12 1.05713 -0.654035 1.93034 1.30807 1.91806 1.05713 1.93034 1.93034 1.91806 1.91806 1.30807 1.93034 1.05713 1.91806 1.22486e-12 1.30807 -0.654035 1.05713 1.05713 -0.654035 0.934841 -0.965171 1.91806 1.05713 1.9151 0.934841 1.91806 1.91806 1.9151 1.9151 1.05713 1.91806 0.934841 1.9151 -0.654035 1.05713 -0.965171 0.934841 0.934841 -0.965171 0.934841 -0.965171 1.9151 0.934841 1.9151 0.934841 1.9151 1.9151 1.9151 1.9151 0.934841 1.9151 0.934841 1.9151 -0.965171 0.934841 -0.965171 0.934841 0.934841 -0.965171 1.05713 -0.654035 1.9151 0.934841 1.91806 1.05713 1.9151 1.9151 1.91806 1.91806 0.934841 1.9151 1.05713 1.91806 -0.965171 0.934841 -0.654035 1.05713 1.05713 -0.654035 1.30807 -1.23156e-12 1.91806 1.05713 1.93034 1.30807 1.91806 1.91806 1.93034 1.93034 1.05713 1.91806 1.30807 1.93034 -0.654035 1.05713 1.23516e-12 1.30807 1.05713 1.30807 -0.654035 -1.23156e-12 1.91806 1.93034 1.05713 1.30807 1.91806 1.93034 1.91806 1.93034 1.05713 1.30807 1.91806 1.93034 -0.654035 1.23516e-12 1.05713 1.30807 0.934841 1.05713 -0.965171 -0.654035 1.9151 1.91806 0.934841 1.05713 1.9151 1.91806 1.9151 1.91806 0.934841 1.05713 1.9151 1.91806 -0.965171 -0.654035 0.934841 1.05713 0.934841 0.934841 -0.965171 -0.965171 1.9151 1.9151 0.934841 0.934841 1.9151 1.9151 1.9151 1.9151 0.934841 0.934841 1.9151 1.9151 -0.965171 -0.965171 0.934841 0.934841 1.05713 0.934841 -0.654035 -0.965171 1.91806 1.9151 1.05713 0.934841 1.91806 1.9151 1.91806 1.9151 1.05713 0.934841 1.91806 1.9151 -0.654035 -0.965171 1.05713 0.934841 1.30807 1.05713 -1.24295e-12 -0.654035 1.93034 1.91806 1.30807 1.05713 1.93034 1.91806 1.93034 1.91806 1.30807 1.05713 1.93034 1.91806 1.21989e-12 -0.654035 1.30807 1.05713 1.30807 -1.23399e-12 1.05713 -0.654035 1.93034 1.30807 1.91806 1.05713 1.93034 1.93034 1.91806 1.91806 1.30807 1.93034 1.05713 1.91806 1.2503e-12 1.30807 -0.654035 1.05713 1.05713 -0.654035 0.934841 -0.965171 1.91806 1.05713 1.9151 0.934841 1.91806 1.91806 1.9151 1.9151 1.05713 1.91806 0.934841 1.9151 -0.654035 1.05713 -0.965171 0.934841 0.934841 -0.965171 0.934841 -0.965171 1.9151 0.934841 1.9151 0.934841 1.9151 1.9151 1.9151 1.9151 0.934841 1.9151 0.934841 1.9151 -0.965171 0.934841 -0.965171 0.934841 0.934841 -0.965171 1.05713 -0.654035 1.9151 0.934841 1.91806 1.05713 1.9151 1.9151 1.91806 1.91806 0.934841 1.9151 1.05713 1.91806 -0.965171 0.934841 -0.654035 1.05713 1.05713 -0.654035 1.30807 -1.23816e-12 1.91806 1.05713 1.93034 1.30807 1.91806 1.91806 1.93034 1.93034 1.05713 1.91806 1.30807 1.93034 -0.654035 1.05713 1.22486e-12 1.30807 
SCALARS alpha double 1
LOOKUP_TABLE default