# vtk DataFile Version 3.0
#This file was generated by the deal.II library on 2025/2/20 at 11:34:26
ASCII
DATASET UNSTRUCTURED_GRID

POINTS 9600 double
-0.543737 0.543737 -0.639296
-0.604152 0.519615 -0.604152
-0.519615 0.604152 -0.604152
-0.57735 0.57735 -0.57735
-0.483322 0.564447 -0.669179
-0.543737 0.543737 -0.639296
-0.46188 0.627163 -0.627163
-0.519615 0.604152 -0.604152
-0.422907 0.582108 -0.694478
-0.483322 0.564447 -0.669179
-0.404145 0.646787 -0.646787
-0.46188 0.627163 -0.627163
-0.362491 0.596992 -0.715681
-0.422907 0.582108 -0.694478
-0.34641 0.663325 -0.663325
-0.404145 0.646787 -0.646787
-0.302076 0.609303 -0.733144
-0.362491 0.596992 -0.715681
-0.288675 0.677003 -0.677003
-0.34641 0.663325 -0.663325
-0.241661 0.619193 -0.747128
-0.302076 0.609303 -0.733144
-0.23094 0.687992 -0.687992
-0.288675 0.677003 -0.677003
-0.181246 0.626777 -0.757826
-0.241661 0.619193 -0.747128
-0.173205 0.696419 -0.696419
-0.23094 0.687992 -0.687992
-0.12083 0.632139 -0.765376
-0.181246 0.626777 -0.757826
-0.11547 0.702377 -0.702377
-0.173205 0.696419 -0.696419
-0.0604152 0.635335 -0.76987
-0.12083 0.632139 -0.765376
-0.057735 0.705927 -0.705927
-0.11547 0.702377 -0.702377
1.49542e-12 0.636396 -0.771362
-0.0604152 0.635335 -0.76987
1.58785e-12 0.707107 -0.707107
-0.057735 0.705927 -0.705927
0.0604152 0.635335 -0.76987
1.49542e-12 0.636396 -0.771362
0.057735 0.705927 -0.705927
1.58785e-12 0.707107 -0.707107
0.12083 0.632139 -0.765376
0.0604152 0.635335 -0.76987
0.11547 0.702377 -0.702377
0.057735 0.705927 -0.705927
0.181246 0.626777 -0.757826
0.12083 0.632139 -0.765376
0.173205 0.696419 -0.696419
0.11547 0.702377 -0.702377
0.241661 0.619193 -0.747128
0.181246 0.626777 -0.757826
0.23094 0.687992 -0.687992
0.173205 0.696419 -0.696419
0.302076 0.609303 -0.733144
0.241661 0.619193 -0.747128
0.288675 0.677003 -0.677003
0.23094 0.687992 -0.687992
0.362491 0.596992 -0.715681
0.302076 0.609303 -0.733144
0.34641 0.663325 -0.663325
0.288675 0.677003 -0.677003
0.422907 0.582108 -0.694478
0.362491 0.596992 -0.715681
0.404145 0.646787 -0.646787
0.34641 0.663325 -0.663325
0.483322 0.564447 -0.669179
0.422907 0.582108 -0.694478
0.46188 0.627163 -0.627163
0.404145 0.646787 -0.646787
0.543737 0.543737 -0.639296
0.483322 0.564447 -0.669179
0.519615 0.604152 -0.604152
0.46188 0.627163 -0.627163
0.604152 0.519615 -0.604152
0.543737 0.543737 -0.639296
0.57735 0.57735 -0.57735
0.519615 0.604152 -0.604152
-0.564447 0.483322 -0.669179
-0.627163 0.46188 -0.627163
-0.543737 0.543737 -0.639296
-0.604152 0.519615 -0.604152
-0.50173 0.50173 -0.704651
-0.564447 0.483322 -0.669179
-0.483322 0.564447 -0.669179
-0.543737 0.543737 -0.639296
-0.439014 0.51743 -0.734529
-0.50173 0.50173 -0.704651
-0.422907 0.582108 -0.694478
-0.483322 0.564447 -0.669179
-0.376298 0.53066 -0.759474
-0.439014 0.51743 -0.734529
-0.362491 0.596992 -0.715681
-0.422907 0.582108 -0.694478
-0.313581 0.541603 -0.779957
-0.376298 0.53066 -0.759474
-0.302076 0.609303 -0.733144
-0.362491 0.596992 -0.715681
-0.250865 0.550394 -0.796325
-0.313581 0.541603 -0.779957
-0.241661 0.619193 -0.747128
-0.302076 0.609303 -0.733144
-0.188149 0.557136 -0.808826
-0.250865 0.550394 -0.796325
-0.181246 0.626777 -0.757826
-0.241661 0.619193 -0.747128
-0.125433 0.561902 -0.817639
-0.188149 0.557136 -0.808826
-0.12083 0.632139 -0.765376
-0.181246 0.626777 -0.757826
-0.0627163 0.564742 -0.822881
-0.125433 0.561902 -0.817639
-0.0604152 0.635335 -0.76987
-0.12083 0.632139 -0.765376
1.37987e-12 0.565685 -0.824621
-0.0627163 0.564742 -0.822881
1.49542e-12 0.636396 -0.771362
-0.0604152 0.635335 -0.76987
0.0627163 0.564742 -0.822881
1.37987e-12 0.565685 -0.824621
0.0604152 0.635335 -0.76987
1.49542e-12 0.636396 -0.771362
0.125433 0.561902 -0.817639
0.0627163 0.564742 -0.822881
0.12083 0.632139 -0.765376
0.0604152 0.635335 -0.76987
0.188149 0.557136 -0.808826
0.125433 0.561902 -0.817639
0.181246 0.626777 -0.757826
0.12083 0.632139 -0.765376
0.250865 0.550394 -0.796325
0.188149 0.557136 -0.808826
0.241661 0.619193 -0.747128
0.181246 0.626777 -0.757826
0.313581 0.541603 -0.779957
0.250865 0.550394 -0.796325
0.302076 0.609303 -0.733144
0.241661 0.619193 -0.747128
0.376298 0.53066 -0.759474
0.313581 0.541603 -0.779957
0.362491 0.596992 -0.715681
0.302076 0.609303 -0.733144
0.439014 0.51743 -0.734529
0.376298 0.53066 -0.759474
0.422907 0.582108 -0.694478
0.362491 0.596992 -0.715681
0.50173 0.50173 -0.704651
0.439014 0.51743 -0.734529
0.483322 0.564447 -0.669179
0.422907 0.582108 -0.694478
0.564447 0.483322 -0.669179
0.50173 0.50173 -0.704651
0.543737 0.543737 -0.639296
0.483322 0.564447 -0.669179
0.627163 0.46188 -0.627163
0.564447 0.483322 -0.669179
0.604152 0.519615 -0.604152
0.543737 0.543737 -0.639296
-0.582108 0.422907 -0.694478
-0.646787 0.404145 -0.646787
-0.564447 0.483322 -0.669179
-0.627163 0.46188 -0.627163
-0.51743 0.439014 -0.734529
-0.582108 0.422907 -0.694478
-0.50173 0.50173 -0.704651
-0.564447 0.483322 -0.669179
-0.452751 0.452751 -0.768136
-0.51743 0.439014 -0.734529
-0.439014 0.51743 -0.734529
-0.50173 0.50173 -0.704651
-0.388072 0.464327 -0.796116
-0.452751 0.452751 -0.768136
-0.376298 0.53066 -0.759474
-0.439014 0.51743 -0.734529
-0.323393 0.473902 -0.819044
-0.388072 0.464327 -0.796116
-0.313581 0.541603 -0.779957
-0.376298 0.53066 -0.759474
-0.258715 0.481595 -0.837337
-0.323393 0.473902 -0.819044
-0.250865 0.550394 -0.796325
-0.313581 0.541603 -0.779957
-0.194036 0.487494 -0.851293
-0.258715 0.481595 -0.837337
-0.188149 0.557136 -0.808826
-0.250865 0.550394 -0.796325
-0.129357 0.491664 -0.861123
-0.194036 0.487494 -0.851293
-0.125433 0.561902 -0.817639
-0.188149 0.557136 -0.808826
-0.0646787 0.494149 -0.866968
-0.129357 0.491664 -0.861123
-0.0627163 0.564742 -0.822881
-0.125433 0.561902 -0.817639
1.24515e-12 0.494975 -0.868907
-0.0646787 0.494149 -0.866968
1.37987e-12 0.565685 -0.824621
-0.0627163 0.564742 -0.822881
0.0646787 0.494149 -0.866968
1.24515e-12 0.494975 -0.868907
0.0627163 0.564742 -0.822881
1.37987e-12 0.565685 -0.824621
0.129357 0.491664 -0.861123
0.0646787 0.494149 -0.866968
0.125433 0.561902 -0.817639
0.0627163 0.564742 -0.822881
0.194036 0.487494 -0.851293
0.129357 0.491664 -0.861123
0.188149 0.557136 -0.808826
0.125433 0.561902 -0.817639
0.258715 0.481595 -0.837337
0.194036 0.487494 -0.851293
0.250865 0.550394 -0.796325
0.188149 0.557136 -0.808826
0.323393 0.473902 -0.819044
0.258715 0.481595 -0.837337
0.313581 0.541603 -0.779957
0.250865 0.550394 -0.796325
0.388072 0.464327 -0.796116
0.323393 0.473902 -0.819044
0.376298 0.53066 -0.759474
0.313581 0.541603 -0.779957
0.452751 0.452751 -0.768136
0.388072 0.464327 -0.796116
0.439014 0.51743 -0.734529
0.376298 0.53066 -0.759474
0.51743 0.439014 -0.734529
0.452751 0.452751 -0.768136
0.50173 0.50173 -0.704651
0.439014 0.51743 -0.734529
0.582108 0.422907 -0.694478
0.51743 0.439014 -0.734529
0.564447 0.483322 -0.669179
0.50173 0.50173 -0.704651
0.646787 0.404145 -0.646787
0.582108 0.422907 -0.694478
0.627163 0.46188 -0.627163
0.564447 0.483322 -0.669179
-0.596992 0.362491 -0.715681
-0.663325 0.34641 -0.663325
-0.582108 0.422907 -0.694478
-0.646787 0.404145 -0.646787
-0.53066 0.376298 -0.759474
-0.596992 0.362491 -0.715681
-0.51743 0.439014 -0.734529
-0.582108 0.422907 -0.694478
-0.464327 0.388072 -0.796116
-0.53066 0.376298 -0.759474
-0.452751 0.452751 -0.768136
-0.51743 0.439014 -0.734529
-0.397995 0.397995 -0.826559
-0.464327 0.388072 -0.796116
-0.388072 0.464327 -0.796116
-0.452751 0.452751 -0.768136
-0.331662 0.406202 -0.851469
-0.397995 0.397995 -0.826559
-0.323393 0.473902 -0.819044
-0.388072 0.464327 -0.796116
-0.26533 0.412795 -0.871321
-0.331662 0.406202 -0.851469
-0.258715 0.481595 -0.837337
-0.323393 0.473902 -0.819044
-0.198997 0.417852 -0.886454
-0.26533 0.412795 -0.871321
-0.194036 0.487494 -0.851293
-0.258715 0.481595 -0.837337
-0.132665 0.421426 -0.897106
-0.198997 0.417852 -0.886454
-0.129357 0.491664 -0.861123
-0.194036 0.487494 -0.851293
-0.0663325 0.423556 -0.903438
-0.132665 0.421426 -0.897106
-0.0646787 0.494149 -0.866968
-0.129357 0.491664 -0.861123
1.09453e-12 0.424264 -0.905539
-0.0663325 0.423556 -0.903438
1.24515e-12 0.494975 -0.868907
-0.0646787 0.494149 -0.866968
0.0663325 0.423556 -0.903438
1.09453e-12 0.424264 -0.905539
0.0646787 0.494149 -0.866968
1.24515e-12 0.494975 -0.868907
0.132665 0.421426 -0.897106
0.0663325 0.423556 -0.903438
0.129357 0.491664 -0.861123
0.0646787 0.494149 -0.866968
0.198997 0.417852 -0.886454
0.132665 0.421426 -0.897106
0.194036 0.487494 -0.851293
0.129357 0.491664 -0.861123
0.26533 0.412795 -0.871321
0.198997 0.417852 -0.886454
0.258715 0.481595 -0.837337
0.194036 0.487494 -0.851293
0.331662 0.406202 -0.851469
0.26533 0.412795 -0.871321
0.323393 0.473902 -0.819044
0.258715 0.481595 -0.837337
0.397995 0.397995 -0.826559
0.331662 0.406202 -0.851469
0.388072 0.464327 -0.796116
0.323393 0.473902 -0.819044
0.464327 0.388072 -0.796116
0.397995 0.397995 -0.826559
0.452751 0.452751 -0.768136
0.388072 0.464327 -0.796116
0.53066 0.376298 -0.759474
0.464327 0.388072 -0.796116
0.51743 0.439014 -0.734529
0.452751 0.452751 -0.768136
0.596992 0.362491 -0.715681
0.53066 0.376298 -0.759474
0.582108 0.422907 -0.694478
0.51743 0.439014 -0.734529
0.663325 0.34641 -0.663325
0.596992 0.362491 -0.715681
0.646787 0.404145 -0.646787
0.582108 0.422907 -0.694478
-0.609303 0.302076 -0.733144
-0.677003 0.288675 -0.677003
-0.596992 0.362491 -0.715681
-0.663325 0.34641 -0.663325
-0.541603 0.313581 -0.779957
-0.609303 0.302076 -0.733144
-0.53066 0.376298 -0.759474
-0.596992 0.362491 -0.715681
-0.473902 0.323393 -0.819044
-0.541603 0.313581 -0.779957
-0.464327 0.388072 -0.796116
-0.53066 0.376298 -0.759474
-0.406202 0.331662 -0.851469
-0.473902 0.323393 -0.819044
-0.397995 0.397995 -0.826559
-0.464327 0.388072 -0.796116
-0.338502 0.338502 -0.877971
-0.406202 0.331662 -0.851469
-0.331662 0.406202 -0.851469
-0.397995 0.397995 -0.826559
-0.270801 0.343996 -0.899074
-0.338502 0.338502 -0.877971
-0.26533 0.412795 -0.871321
-0.331662 0.406202 -0.851469
-0.203101 0.34821 -0.91515
-0.270801 0.343996 -0.899074
[...]
POINT_DATA 9600
SCALARS phi double 1
LOOKUP_TABLE default
-0.2261 -0.095 -0.095 0 -0.3434 -0.2261 -0.18 -0.095 -0.4469 -0.3434 -0.255 -0.18 -0.5366 -0.4469 -0.32 -0.255 -0.6125 -0.5366 -0.375 -0.32 -0.6746 -0.6125 -0.42 -0.375 -0.7229 -0.6746 -0.455 -0.42 -0.7574 -0.7229 -0.48 -0.455 -0.7781 -0.7574 -0.495 -0.48 -0.785 -0.7781 -0.5 -0.495 -0.7781 -0.785 -0.495 -0.5 -0.7574 -0.7781 -0.48 -0.495 -0.7229 -0.7574 -0.455 -0.48 -0.6746 -0.7229 -0.42 -0.455 -0.6125 -0.6746 -0.375 -0.42 -0.5366 -0.6125 -0.32 -0.375 -0.4469 -0.5366 -0.255 -0.32 -0.3434 -0.4469 -0.18 -0.255 -0.2261 -0.3434 -0.095 -0.18 -0.095 -0.2261 0 -0.095 -0.3434 -0.18 -0.2261 -0.095 -0.4896 -0.3434 -0.3434 -0.2261 -0.6186 -0.4896 -0.4469 -0.3434 -0.7304 -0.6186 -0.5366 -0.4469 -0.825 -0.7304 -0.6125 -0.5366 -0.9024 -0.825 -0.6746 -0.6125 -0.9626 -0.9024 -0.7229 -0.6746 -1.0056 -0.9626 -0.7574 -0.7229 -1.0314 -1.0056 -0.7781 -0.7574 -1.04 -1.0314 -0.785 -0.7781 -1.0314 -1.04 -0.7781 -0.785 -1.0056 -1.0314 -0.7574 -0.7781 -0.9626 -1.0056 -0.7229 -0.7574 -0.9024 -0.9626 -0.6746 -0.7229 -0.825 -0.9024 -0.6125 -0.6746 -0.7304 -0.825 -0.5366 -0.6125 -0.6186 -0.7304 -0.4469 -0.5366 -0.4896 -0.6186 -0.3434 -0.4469 -0.3434 -0.4896 -0.2261 -0.3434 -0.18 -0.3434 -0.095 -0.2261 -0.4469 -0.255 -0.3434 -0.18 -0.6186 -0.4469 -0.4896 -0.3434 -0.7701 -0.6186 -0.6186 -0.4896 -0.9014 -0.7701 -0.7304 -0.6186 -1.0125 -0.9014 -0.825 -0.7304 -1.1034 -1.0125 -0.9024 -0.825 -1.1741 -1.1034 -0.9626 -0.9024 -1.2246 -1.1741 -1.0056 -0.9626 -1.2549 -1.2246 -1.0314 -1.0056 -1.265 -1.2549 -1.04 -1.0314 -1.2549 -1.265 -1.0314 -1.04 -1.2246 -1.2549 -1.0056 -1.0314 -1.1741 -1.2246 -0.9626 -1.0056 -1.1034 -1.1741 -0.9024 -0.9626 -1.0125 -1.1034 -0.825 -0.9024 -0.9014 -1.0125 -0.7304 -0.825 -0.7701 -0.9014 -0.6186 -0.7304 -0.6186 -0.7701 -0.4896 -0.6186 -0.4469 -0.6186 -0.3434 -0.4896 -0.255 -0.4469 -0.18 -0.3434 -0.5366 -0.32 -0.4469 -0.255 -0.7304 -0.5366 -0.6186 -0.4469 -0.9014 -0.7304 -0.7701 -0.6186 -1.0496 -0.9014 -0.9014 -0.7701 -1.175 -1.0496 -1.0125 -0.9014 -1.2776 -1.175 -1.1034 -1.0125 -1.3574 -1.2776 -1.1741 -1.1034 -1.4144 -1.3574 -1.2246 -1.1741 -1.4486 -1.4144 -1.2549 -1.2246 -1.46 -1.4486 -1.265 -1.2549 -1.4486 -1.46 -1.2549 -1.265 -1.4144 -1.4486 -1.2246 -1.2549 -1.3574 -1.4144 -1.1741 -1.2246 -1.2776 -1.3574 -1.1034 -1.1741 -1.175 -1.2776 -1.0125 -1.1034 -1.0496 -1.175 -0.9014 -1.0125 -0.9014 -1.0496 -0.7701 -0.9014 -0.7304 -0.9014 -0.6186 -0.7701 -0.5366 -0.7304 -0.4469 -0.6186 -0.32 -0.5366 -0.255 -0.4469 -0.6125 -0.375 -0.5366 -0.32 -0.825 -0.6125 -0.7304 -0.5366 -1.0125 -0.825 -0.9014 -0.7304 -1.175 -1.0125 -1.0496 -0.9014 -1.3125 -1.175 -1.175 -1.0496 -1.425 -1.3125 -1.2776 -1.175 -1.5125 -1.425 -1.3574 -1.2776 -1.575 -1.5125 -1.4144 -1.3574 -1.6125 -1.575 -1.4486 -1.4144 -1.625 -1.6125 -1.46 -1.4486 -1.6125 -1.625 -1.4486 -1.46 -1.575 -1.6125 -1.4144 -1.4486 -1.5125 -1.575 -1.3574 -1.4144 -1.425 -1.5125 -1.2776 -1.3574 -1.3125 -1.425 -1.175 -1.2776 -1.175 -1.3125 -1.0496 -1.175 -1.0125 -1.175 -0.9014 -1.0496 -0.825 -1.0125 -0.7304 -0.9014 -0.6125 -0.825 -0.5366 -0.7304 -0.375 -0.6125 -0.32 -0.5366 -0.6746 -0.42 -0.6125 -0.375 -0.9024 -0.6746 -0.825 -0.6125 -1.1034 -0.9024 -1.0125 -0.825 -1.2776 -1.1034 -1.175 -1.0125 -1.425 -1.2776 -1.3125 -1.175 -1.5456 -1.425 -1.425 -1.3125 -1.6394 -1.5456 -1.5125 -1.425 -1.7064 -1.6394 -1.575 -1.5125 -1.7466 -1.7064 -1.6125 -1.575 -1.76 -1.7466 -1.625 -1.6125 -1.7466 -1.76 -1.6125 -1.625 -1.7064 -1.7466 -1.575 -1.6125 -1.6394 -1.7064 -1.5125 -1.575 -1.5456 -1.6394 -1.425 -1.5125 -1.425 -1.5456 -1.3125 -1.425 -1.2776 -1.425 -1.175 -1.3125 -1.1034 -1.2776 -1.0125 -1.175 -0.9024 -1.1034 -0.825 -1.0125 -0.6746 -0.9024 -0.6125 -0.825 -0.42 -0.6746 -0.375 -0.6125 -0.7229 -0.455 -0.6746 -0.42 -0.9626 -0.7229 -0.9024 -0.6746 -1.1741 -0.9626 -1.1034 -0.9024 -1.3574 -1.1741 -1.2776 -1.1034 -1.5125 -1.3574 -1.425 -1.2776 -1.6394 -1.5125 -1.5456 -1.425 -1.7381 -1.6394 -1.6394 -1.5456 -1.8086 -1.7381 -1.7064 -1.6394 -1.8509 -1.8086 -1.7466 -1.7064 -1.865 -1.8509 -1.76 -1.7466 -1.8509 -1.865 -1.7466 -1.76 -1.8086 -1.8509 -1.7064 -1.7466 -1.7381 -1.8086 -1.6394 -1.7064 -1.6394 -1.7381 -1.5456 -1.6394 -1.5125 -1.6394 -1.425 -1.5456 -1.3574 -1.5125 -1.2776 -1.425 -1.1741 -1.3574 -1.1034 -1.2776 -0.9626 -1.1741 -0.9024 -1.1034 -0.7229 -0.9626 -0.6746 -0.9024 -0.455 -0.7229 -0.42 -0.6746 -0.7574 -0.48 -0.7229 -0.455 -1.0056 -0.7574 -0.9626 -0.7229 -1.2246 -1.0056 -1.1741 -0.9626 -1.4144 -1.2246 -1.3574 -1.1741 -1.575 -1.4144 -1.5125 -1.3574 -1.7064 -1.575 -1.6394 -1.5125 -1.8086 -1.7064 -1.7381 -1.6394 -1.8816 -1.8086 -1.8086 -1.7381 -1.9254 -1.8816 -1.8509 -1.8086 -1.94 -1.9254 -1.865 -1.8509 -1.9254 -1.94 -1.8509 -1.865 -1.8816 -1.9254 -1.8086 -1.8509 -1.8086 -1.8816 -1.7381 -1.8086 -1.7064 -1.8086 -1.6394 -1.7381 -1.575 -1.7064 -1.5125 -1.6394 -1.4144 -1.575 -1.3574 -1.5125 -1.2246 -1.4144 -1.1741 -1.3574 -1.0056 -1.2246 -0.9626 -1.1741 -0.7574 -1.0056 -0.7229 -0.9626 -0.48 -0.7574 -0.455 -0.7229 -0.7781 -0.495 -0.7574 -0.48 -1.0314 -0.7781 -1.0056 -0.7574 -1.2549 -1.0314 -1.2246 -1.0056 -1.4486 -1.2549 -1.4144 -1.2246 -1.6125 -1.4486 -1.575 -1.4144 -1.7466 -1.6125 -1.7064 -1.575 -1.8509 -1.7466 -1.8086 -1.7064 -1.9254 -1.8509 -1.8816 -1.8086 -1.9701 -1.9254 -1.9254 -1.8816 -1.985 -1.9701 -1.94 -1.9254 -1.9701 -1.985 -1.9254 -1.94 -1.9254 -1.9701 -1.8816 -1.9254 -1.8509 -1.9254 -1.8086 -1.8816 -1.7466 -1.8509 -1.7064 -1.8086 -1.6125 -1.7466 -1.575 -1.7064 -1.4486 -1.6125 -1.4144 -1.575 -1.2549 -1.4486 -1.2246 -1.4144 -1.0314 -1.2549 -1.0056 -1.2246 -0.7781 -1.0314 -0.7574 -1.0056 -0.495 -0.7781 -0.48 -0.7574 -0.785 -0.5 -0.7781 -0.495 -1.04 -0.785 -1.0314 -0.7781 -1.265 -1.04 -1.2549 -1.0314 -1.46 -1.265 -1.4486 -1.2549 -1.625 -1.46 -1.6125 -1.4486 -1.76 -1.625 -1.7466 -1.6125 -1.865 -1.76 -1.8509 -1.7466 -1.94 -1.865 -1.9254 -1.8509 -1.985 -1.94 -1.9701 -1.9254 -2 -1.985 -1.985 -1.9701 -1.985 -2 -1.9701 -1.985 -1.94 -1.985 -1.9254 -1.9701 -1.865 -1.94 -1.8509 -1.9254 -1.76 -1.865 -1.7466 -1.8509 -1.625 -1.76 -1.6125 -1.7466 -1.46 -1.625 -1.4486 -1.6125 -1.265 -1.46 -1.2549 -1.4486 -1.04 -1.265 -1.0314 -1.2549 -0.785 -1.04 -0.7781 -1.0314 -0.5 -0.785 -0.495 -0.7781 -0.7781 -0.495 -0.785 -0.5 -1.0314 -0.7781 -1.04 -0.785 -1.2549 -1.0314 -1.265 -1.04 -1.4486 -1.2549 -1.46 -1.265 -1.6125 -1.4486 -1.625 -1.46 -1.7466 -1.6125 -1.76 -1.625 -1.8509 -1.7466 -1.865 -1.76 -1.9254 -1.8509 -1.94 -1.865 -1.9701 -1.9254 -1.985 -1.94 -1.985 -1.9701 -2 -1.985 -1.9701 -1.985 -1.985 -2 -1.9254 -1.9701 -1.94 -1.985 -1.8509 -1.9254 -1.865 -1.94 -1.7466 -1.8509 -1.76 -1.865 -1.6125 -1.7466 -1.625 -1.76 -1.4486 -1.6125 -1.46 -1.625 -1.2549 -1.4486 -1.265 -1.46 -1.0314 -1.2549 -1.04 -1.265 -0.7781 -1.0314 -0.785 -1.04 -0.495 -0.7781 -0.5 -0.785 -0.7574 -0.48 -0.7781 -0.495 -1.0056 -0.7574 -1.0314 -0.7781 -1.2246 -1.0056 -1.2549 -1.0314 -1.4144 -1.2246 -1.4486 -1.2549 -1.575 -1.4144 -1.6125 -1.4486 -1.7064 -1.575 -1.7466 -1.6125 -1.8086 -1.7064 -1.8509 -1.7466 -1.8816 -1.8086 -1.9254 -1.8509 -1.9254 -1.8816 -1.9701 -1.9254 -1.94 -1.9254 -1.985 -1.9701 -1.9254 -1.94 -1.9701 -1.985 -1.8816 -1.9254 -1.9254 -1.9701 -1.8086 -1.8816 -1.8509 -1.9254 -1.7064 -1.8086 -1.7466 -1.8509 -1.575 -1.7064 -1.6125 -1.7466 -1.4144 -1.575 -1.4486 -1.6125 -1.2246 -1.4144 -1.2549 -1.4486 -1.0056 -1.2246 -1.0314 -1.2549 -0.7574 -1.0056 -0.7781 -1.0314 -0.48 -0.7574 -0.495 -0.7781 -0.7229 -0.455 -0.7574 -0.48 -0.9626 -0.7229 -1.0056 -0.7574 -1.1741 -0.9626 -1.2246 -1.0056 -1.3574 -1.1741 -1.4144 -1.2246 -1.5125 -1.3574 -1.575 -1.4144 -1.6394 -1.5125 -1.7064 -1.575 -1.7381 -1.6394 -1.8086 -1.7064 -1.8086 -1.7381 -1.8816 -1.8086 -1.8509 -1.8086 -1.9254 -1.8816 -1.865 -1.8509 -1.94 -1.9254 -1.8509 -1.865 -1.9254 -1.94 -1.8086 -1.8509 -1.8816 -1.9254 -1.7381 -1.8086 -1.8086 -1.8816 -1.6394 -1.7381 -1.7064 -1.8086 -1.5125 -1.6394 -1.575 -1.7064 -1.3574 -1.5125 -1.4144 -1.575 -1.1741 -1.3574 -1.2246 -1.4144 -0.9626 -1.1741 -1.0056 -1.2246 -0.7229 -0.9626 -0.7574 -1.0056 -0.455 -0.7229 -0.48 -0.7574 -0.6746 -0.42 -0.7229 -0.455 -0.9024 -0.6746 -0.9626 -0.7229 -1.1034 -0.9024 -1.1741 -0.9626 -1.2776 -1.1034 -1.3574 -1.1741 -1.425 -1.2776 -1.5125 -1.3574 -1.5456 -1.425 -1.6394 -1.5125 -1.6394 -1.5456 -1.7381 -1.6394 -1.7064 -1.6394 -1.8086 -1.7381 -1.7466 -1.7064 -1.8509 -1.8086 -1.76 -1.7466 -1.865 -1.8509 -1.7466 -1.76 -1.8509 -1.865 -1.7064 -1.7466 -1.8086 -1.8509 -1.6394 -1.7064 -1.7381 -1.8086 -1.5456 -1.6394 -1.6394 -1.7381 -1.425 -1.5456 -1.5125 -1.6394 -1.2776 -1.425 -1.3574 -1.5125 -1.1034 -1.2776 -1.1741 -1.3574 -0.9024 -1.1034 -0.9626 -1.1741 -0.6746 -0.9024 -0.7229 -0.9626 -0.42 -0.6746 -0.455 -0.7229 -0.6125 -0.375 -0.6746 -0.42 -0.825 -0.6125 -0.9024 -0.6746 -1.0125 -0.825 -1.1034 -0.9024 -1.175 -1.0125 -1.2776 -1.1034 -1.3125 -1.175 -1.425 -1.2776 -1.425 -1.3125 -1.5456 -1.425 -1.5125 -1.425 -1.6394 -1.5456 -1.575 -1.5125 -1.7064 -1.6394 -1.6125 -1.575 -1.7466 -1.7064 -1.625 -1.6125 -1.76 -1.7466 -1.6125 -1.625 -1.7466 -1.76 -1.575 -1.6125 -1.7064 -1.7466 -1.5125 -1.575 -1.6394 -1.7064 -1.425 -1.5125 -1.5456 -1.6394 -1.3125 -1.425 -1.425 -1.5456 -1.175 -1.3125 -1.2776 -1.425 -1.0125 -1.175 -1.1034 -1.2776 -0.825 -1.0125 -0.9024 -1.1034 -0.6125 -0.825 -0.6746 -0.9024 -0.375 -0.6125 -0.42 -0.6746 -0.5366 -0.32 -0.6125 -0.375 -0.7304 -0.5366 -0.825 -0.6125 -0.9014 -0.7304 -1.0125 -0.825 -1.0496 -0.9014 -1.175 -1.0125 -1.175 -1.0496 -1.3125 -1.175 -1.2776 -1.175 -1.425 -1.3125 -1.3574 -1.2776 -1.5125 -1.425 -1.4144 -1.3574 -1.575 -1.5125 -1.4486 -1.4144 -1.6125 -1.575 -1.46 -1.4486 -1.625 -1.6125 -1.4486 -1.46 -1.6125 -1.625 -1.4144 -1.4486 -1.575 -1.6125 -1.3574 -1.4144 -1.5125 -1.575 -1.2776 -1.3574 -1.425 -1.5125 -1.175 -1.2776 -1.3125 -1.425 -1.0496 -1.175 -1.175 -1.3125 -0.9014 -1.0496 -1.0125 -1.175 -0.7304 -0.9014 -0.825 -1.0125 -0.5366 -0.7304 -0.6125 -0.825 -0.32 -0.5366 -0.375 -0.6125 -0.4469 -0.255 -0.5366 -0.32 -0.6186 -0.4469 -0.7304 -0.5366 -0.7701 -0.6186 -0.9014 -0.7304 -0.9014 -0.7701 -1.0496 -0.9014 -1.0125 -0.9014 -1.175 -1.0496 -1.1034 -1.0125 -1.2776 -1.175 -1.1741 -1.1034 -1.3574 -1.2776 -1.2246 -1.1741 -1.4144 -1.3574 -1.2549 -1.2246 -1.4486 -1.4144 -1.265 -1.2549 -1.46 -1.4486 -1.2549 -1.265 -1.4486 -1.46 -1.2246 -1.2549 -1.4144 -1.4486 -1.1741 -1.2246 -1.3574 -1.4144 -1.1034 -1.1741 -1.2776 -1.3574 -1.0125 -1.1034 -1.175 -1.2776 -0.9014 -1.0125 -1.0496 -1.175 -0.7701 -0.9014 -0.9014 -1.0496 -0.6186 -0.7701 -0.7304 -0.9014 -0.4469 -0.6186 -0.5366 -0.7304 -0.255 -0.4469 -0.32 -0.5366 -0.3434 -0.18 -0.4469 -0.255 -0.4896 -0.3434 -0.6186 -0.4469 -0.6186 -0.4896 -0.7701 -0.6186 -0.7304 -0.6186 -0.9014 -0.7701 -0.825 -0.7304 -1.0125 -0.9014 -0.9024 -0.825 -1.1034 -1.0125 -0.9626 -0.9024 -1.1741 -1.1034 -1.0056 -0.9626 -1.2246 -1.1741 -1.0314 -1.0056 -1.2549 -1.2246 -1.04 -1.0314 -1.265 -1.2549 -1.0314 -1.04 -1.2549 -1.265 -1.0056 -1.0314 -1.2246 -1.2549 -0.9626 -1.0056 -1.1741 -1.2246 -0.9024 -0.9626 -1.1034 -1.1741 -0.825 -0.9024 -1.0125 -1.1034 -0.7304 -0.825 -0.9014 -1.0125 -0.6186 -0.7304 -0.7701 -0.9014 -0.4896 -0.6186 -0.6186 -0.7701 -0.3434 -0.4896 -0.4469 -0.6186 -0.18 -0.3434 -0.255 -0.4469 -0.2261 -0.095 -0.3434 -0.18 -0.3434 -0.2261 -0.4896 -0.3434 -0.4469 -0.3434 -0.6186 -0.4896 -0.5366 -0.4469 -0.7304 -0.6186 -0.6125 -0.5366 -0.825 -0.7304 -0.6746 -0.6125 -0.9024 -0.825 -0.7229 -0.6746 -0.9626 -0.9024 -0.7574 -0.7229 -1.0056 -0.9626 -0.7781 -0.7574 -1.0314 -1.0056 -0.785 -0.7781 -1.04 -1.0314 -0.7781 -0.785 -1.0314 -1.04 -0.7574 -0.7781 -1.0056 -1.0314 -0.7229 -0.7574 -0.9626 -1.0056 -0.6746 -0.7229 -0.9024 -0.9626 -0.6125 -0.6746 -0.825 -0.9024 -0.5366 -0.6125 -0.7304 -0.825 -0.4469 -0.5366 -0.6186 -0.7304 -0.3434 -0.4469 -0.4896 -0.6186 -0.2261 -0.3434 -0.3434 -0.4896 -0.095 -0.2261 -0.18 -0.3434 -0.095 0 -0.2261 -0.095 -0.18 -0.095 -0.3434 -0.2261 -0.255 -0.18 -0.4469 -0.3434 -0.32 -0.255 -0.5366 -0.4469 -0.375 -0.32 -0.6125 -0.5366 -0.42 -0.375 -0.6746 -0.6125 -0.455 -0.42 -0.7229 -0.6746 -0.48 -0.455 -0.7574 -0.7229 -0.495 -0.48 -0.7781 -0.7574 -0.5 -0.495 -0.785 -0.7781 -0.495 -0.5 -0.7781 -0.785 -0.48 -0.495 -0.7574 -0.7781 -0.455 -0.48 -0.7229 -0.7574 -0.42 -0.455 -0.6746 -0.7229 -0.375 -0.42 -0.6125 -0.6746 -0.32 -0.375 -0.5366 -0.6125 -0.255 -0.32 -0.4469 -0.5366 -0.18 -0.255 -0.3434 -0.4469 -0.095 -0.18 -0.2261 -0.3434 0 -0.095 -0.095 -0.2261 -0.095 -0.2261 0 -0.095 -0.2261 -0.3434 -0.095 -0.18 -0.3434 -0.4469 -0.18 -0.255 -0.4469 -0.5366 -0.255 -0.32 -0.5366 -0.6125 -0.32 -0.375 -0.6125 -0.6746 -0.375 -0.42 -0.6746 -0.7229 -0.42 -0.455 -0.7229 -0.7574 -0.455 -0.48 -0.7574 -0.7781 -0.48 -0.495 -0.7781 -0.785 -0.495 -0.5 -0.785 -0.7781 -0.5 -0.495 -0.7781 -0.7574 -0.495 -0.48 -0.7574 -0.7229 -0.48 -0.455 -0.7229 -0.6746 -0.455 -0.42 -0.6746 -0.6125 -0.42 -0.375 -0.6125 -0.5366 -0.375 -0.32 -0.5366 -0.4469 -0.32 -0.255 -0.4469 -0.3434 -0.255 -0.18 -0.3434 -0.2261 -0.18 -0.095 -0.2261 -0.095 -0.095 0 -0.18 -0.3434 -0.095 -0.2261 -0.3434 -0.4896 -0.2261 -0.3434 -0.4896 -0.6186 -0.3434 -0.4469 -0.6186 -0.7304 -0.4469 -0.5366 -0.7304 -0.825 -0.5366 -0.6125 -0.825 -0.9024 -0.6125 -0.6746 -0.9024 -0.9626 -0.6746 -0.7229 -0.9626 -1.0056 -0.7229 -0.7574 -1.0056 -1.0314 -0.7574 -0.7781 -1.0314 -1.04 -0.7781 -0.785 -1.04 -1.0314 -0.785 -0.7781 -1.0314 -1.0056 -0.7781 -0.7574 -1.0056 -0.9626 -0.7574 -0.7229 -0.9626 -0.9024 -0.7229 -0.6746 -0.9024 -0.825 -0.6746 -0.6125 -0.825 -0.7304 -0.6125 -0.5366 -0.7304 -0.6186 -0.5366 -0.4469 -0.6186 -0.4896 -0.4469 -0.3434 -0.4896 -0.3434 -0.3434 -0.2261 -0.3434 -0.18 -0.2261 -0.095 -0.255 -0.4469 -0.18 -0.3434 -0.4469 -0.6186 -0.3434 -0.4896 -0.6186 -0.7701 -0.4896 -0.6186 -0.7701 -0.9014 -0.6186 -0.7304 -0.9014 -1.0125 -0.7304 -0.825 -1.0125 -1.1034 -0.825 -0.9024 -1.1034 -1.1741 -0.9024 -0.9626 -1.1741 -1.2246 -0.9626 -1.0056 -1.2246 -1.2549 -1.0056 -1.0314 -1.2549 -1.265 -1.0314 -1.04 -1.265 -1.2549 -1.04 -1.0314 -1.2549 -1.2246 -1.0314 -1.0056 -1.2246 -1.1741 -1.0056 -0.9626 -1.1741 -1.1034 -0.9626 -0.9024 -1.1034 -1.0125 -0.9024 -0.825 -1.0125 -0.9014 -0.825 -0.7304 -0.9014 -0.7701 -0.7304 -0.6186 -0.7701 -0.6186 -0.6186 -0.4896 -0.6186 -0.4469 -0.4896 -0.3434 -0.4469 -0.255 -0.3434 -0.18 -0.32 -0.5366 -0.255 -0.4469 -0.5366 -0.7304 -0.4469 -0.6186 -0.7304 -0.9014 -0.6186 -0.7701 -0.9014 -1.0496 -0.7701 -0.9014 -1.0496 -1.175 -0.9014 -1.0125 -1.175 -1.2776 -1.0125 -1.1034 -1.2776 -1.3574 -1.1034 -1.1741 -1.3574 -1.4144 -1.1741 -1.2246 -1.4144 -1.4486 -1.2246 -1.2549 -1.4486 -1.46 -1.2549 -1.265 -1.46 -1.4486 -1.265 -1.2549 -1.4486 -1.4144 -1.2549 -1.2246 -1.4144 -1.3574 -1.2246 -1.1741 -1.3574 -1.2776 -1.1741 -1.1034 -1.2776 -1.175 -1.1034 -1.0125 -1.175 -1.0496 -1.0125 -0.9014 -1.0496 -0.9014 -0.9014 -0.7701 -0.9014 -0.7304 -0.7701 -0.6186 -0.7304 -0.5366 -0.6186 -0.4469 -0.5366 -0.32 -0.4469 -0.255 -0.375 -0.6125 -0.32 -0.5366 -0.6125 -0.825 -0.5366 -0.7304 -0.825 -1.0125 -0.7304 -0.9014 -1.0125 -1.175 -0.9014 -1.0496 -1.175 -1.3125 -1.0496 -1.175 -1.3125 -1.425 -1.175 -1.2776 -1.425 -1.5125 -1.2776 -1.3574 -1.5125 -1.575 -1.3574 -1.4144 -1.575 -1.6125 -1.4144 -1.4486 -1.6125 -1.625 -1.4486 -1.46 -1.625 -1.6125 -1.46 -1.4486 -1.6125 -1.575 -1.4486 -1.4144 -1.575 -1.5125 -1.4144 -1.3574 -1.5125 -1.425 -1.3574 -1.2776 -1.425 -1.3125 -1.2776 -1.175 -1.3125 -1.175 -1.175 -1.0496 -1.175 -1.0125 -1.0496 -0.9014 -1.0125 -0.825 -0.9014 -0.7304 -0.825 -0.6125 -0.7304 -0.5366 -0.6125 -0.375 -0.5366 -0.32 -0.42 -0.6746 -0.375 -0.6125 -0.6746 -0.9024 -0.6125 -0.825 -0.9024 -1.1034 -0.825 -1.0125 -1.1034 -1.2776 -1.0125 -1.175 -1.2776 -1.425 -1.175 -1.3125 -1.425 -1.5456 -1.3125 -1.425 -1.5456 -1.6394 -1.425 -1.5125 -1.6394 -1.7064 -1.5125 -1.575 -1.7064 -1.7466 -1.575 -1.6125 -1.7466 -1.76 -1.6125 -1.625 -1.76 -1.7466 -1.625 -1.6125 -1.7466 -1.7064 -1.6125 -1.575 -1.7064 -1.6394 -1.575 -1.5125 -1.6394 -1.5456 -1.5125 -1.425 -1.5456 -1.425 -1.425 -1.3125 -1.425 -1.2776 -1.3125 -1.175 -1.2776 -1.1034 -1.175 -1.0125 -1.1034 -0.9024 -1.0125 -0.825 -0.9024 -0.6746 -0.825 -0.6125 -0.6746 -0.42 -0.6125 -0.375 -0.455 -0.7229 -0.42 -0.6746 -0.7229 -0.9626 -0.6746 -0.9024 -0.9626 -1.1741 -0.9024 -1.1034 -1.1741 -1.3574 -1.1034 -1.2776 -1.3574 -1.5125 -1.2776 -1.425 -1.5125 -1.6394 -1.425 -1.5456 -1.6394 -1.7381 -1.5456 -1.6394 -1.7381 -1.8086 -1.6394 -1.7064 -1.8086 -1.8509 -1.7064 -1.7466 -1.8509 -1.865 -1.7466 -1.76 -1.865 -1.8509 -1.76 -1.7466 -1.8509 -1.8086 -1.7466 -1.7064 -1.8086 -1.7381 -1.7064 -1.6394 -1.7381 -1.6394 -1.6394 -1.5456 -1.6394 -1.5125 -1.5456 -1.425 -1.5125 -1.3574 -1.425 -1.2776 -1.3574 -1.1741 -1.2776 -1.1034 -1.1741 -0.9626 -1.1034 -0.9024 -0.9626 -0.7229 -0.9024 -0.6746 -0.7229 -0.455 -0.6746 -0.42 -0.48 -0.7574 -0.455 -0.7229 -0.7574 -1.0056 -0.7229 -0.9626 -1.0056 -1.2246 -0.9626 -1.1741 -1.2246 -1.4144 -1.1741 -1.3574 -1.4144 -1.575 -1.3574 -1.5125 -1.575 -1.7064 -1.5125 -1.6394 -1.7064 -1.8086 -1.6394 -1.7381 -1.8086 -1.8816 -1.7381 -1.8086 -1.8816 -1.9254 -1.8086 -1.8509 -1.9254 -1.94 -1.8509 -1.865 -1.94 -1.9254 -1.865 -1.8509 -1.9254 -1.8816 -1.8509 -1.8086 -1.8816 -1.8086 -1.8086 -1.7381 -1.8086 -1.7064 -1.7381 -1.6394 -1.7064 -1.575 -1.6394 -1.5125 -1.575 -1.4144 -1.5125 -1.3574 -1.4144 -1.2246 -1.3574 -1.1741 -1.2246 -1.0056 -1.1741 -0.9626 -1.0056 -0.7574 -0.9626 -0.7229 -0.7574 -0.48 -0.7229 -0.455 -0.495 -0.7781 -0.48 -0.7574 -0.7781 -1.0314 -0.7574 -1.0056 -1.0314 -1.2549 -1.0056 -1.2246 -1.2549 -1.4486 -1.2246 -1.4144 -1.4486 -1.6125 -1.4144 -1.575 -1.6125 -1.7466 -1.575 -1.7064 -1.7466 -1.8509 -1.7064 -1.8086 -1.8509 -1.9254 -1.8086 -1.8816 -1.9254 -1.9701 -1.8816 -1.9254 -1.9701 -1.985 -1.9254 -1.94 -1.985 -1.9701 -1.94 -1.9254 -1.9701 -1.9254 -1.9254 -1.8816 -1.9254 -1.8509 -1.8816 -1.8086 -1.8509 -1.7466 -1.8086 -1.7064 -1.7466 -1.6125 -1.7064 -1.575 -1.6125 -1.4486 -1.575 -1.4144 -1.4486 -1.2549 -1.4144 -1.2246 -1.2549 -1.0314 -1.2246 -1.0056 -1.0314 -0.7781 -1.0056 -0.7574 -0.7781 -0.495 -0.7574 -0.48 -0.5 -0.785 -0.495 -0.7781 -0.785 -1.04 -0.7781 -1.0314 -1.04 -1.265 -1.0314 -1.2549 -1.265 -1.46 -1.2549 -1.4486 -1.46 -1.625 -1.4486 -1.6125 -1.625 -1.76 -1.6125 -1.7466 -1.76 -1.865 -1.7466 -1.8509 -1.865 -1.94 -1.8509 -1.9254 -1.94 -1.985 -1.9254 -1.9701 -1.985 -2 -1.9701 -1.985 -2 -1.985 -1.985 -1.9701 -1.985 -1.94 -1.9701 -1.9254 -1.94 -1.865 -1.9254 -1.8509 -1.865 -1.76 -1.8509 -1.7466 -1.76 -1.625 -1.7466 -1.6125 -1.625 -1.46 -1.6125 -1.4486 -1.46 -1.265 -1.4486 -1.2549 -1.265 -1.04 -1.2549 -1.0314 -1.04 -0.785 -1.0314 -0.7781 -0.785 -0.5 -0.7781 -0.495 -0.495 -0.7781 -0.5 -0.785 -0.7781 -1.0314 -0.785 -1.04 -1.0314 -1.2549 -1.04 -1.265 -1.2549 -1.4486 -1.265 -1.46 -1.4486 -1.6125 -1.46 -1.625 -1.6125 -1.7466 -1.625 -1.76 -1.7466 -1.8509 -1.76 -1.865 -1.8509 -1.9254 -1.865 -1.94 -1.9254 -1.9701 -1.94 -1.985 -1.9701 -1.985 -1.985 -2 -1.985 -1.9701 -2 -1.985 -1.9701 -1.9254 -1.985 -1.94 -1.9254 -1.8509 -1.94 -1.865 -1.8509 -1.7466 -1.865 -1.76 -1.7466 -1.6125 -1.76 -1.625 -1.6125 -1.4486 -1.625 -1.46 -1.4486 -1.2549 -1.46 -1.265 -1.2549 -1.0314 -1.265 -1.04 -1.0314 -0.7781 -1.04 -0.785 -0.7781 -0.495 -0.785 -0.5 -0.48 -0.7574 -0.495 -0.7781 -0.7574 -1.0056 -0.7781 -1.0314 -1.0056 -1.2246 -1.0314 -1.2549 -1.2246 -1.4144 -1.2549 -1.4486 -1.4144 -1.575 -1.4486 -1.6125 -1.575 -1.7064 -1.6125 -1.7466 -1.7064 -1.8086 -1.7466 -1.8509 -1.8086 -1.8816 -1.8509 -1.9254 -1.8816 -1.9254 -1.9254 -1.9701 -1.9254 -1.94 -1.9701 -1.985 -1.94 -1.9254 -1.985 -1.9701 -1.9254 -1.8816 -1.9701 -1.9254 -1.8816 -1.8086 -1.9254 -1.8509 -1.8086 -1.7064 -1.8509 -1.7466 -1.7064 -1.575 -1.7466 -1.6125 -1.575 -1.4144 -1.6125 -1.4486 -1.4144 -1.2246 -1.4486 -1.2549 -1.2246 -1.0056 -1.2549 -1.0314 -1.0056 -0.7574 -1.0314 -0.7781 -0.7574 -0.48 -0.7781 -0.495 -0.455 -0.7229 -0.48 -0.7574 -0.7229 -0.9626 -0.7574 -1.0056 -0.9626 -1.1741 -1.0056 -1.2246 -1.1741 -1.3574 -1.2246 -1.4144 -1.3574 -1.5125 -1.4144 -1.575 -1.5125 -1.6394 -1.575 -1.7064 -1.6394 -1.7381 -1.7064 -1.8086 -1.7381 -1.8086 -1.8086 -1.8816 -1.8086 -1.8509 -1.8816 -1.9254 -1.8509 -1.865 -1.9254 -1.94 -1.865 -1.8509 -1.94 -1.9254 -1.8509 -1.8086 -1.9254 -1.8816 -1.8086 -1.7381 -1.8816 -1.8086 -1.7381 -1.6394 -1.8086 -1.7064 -1.6394 -1.5125 -1.7064 -1.575 