# vtk DataFile Version 3.0
#This file was generated by the deal.II library on 2025/2/20 at 11:31:25
ASCII
DATASET UNSTRUCTURED_GRID

POINTS 2400 double
-0.50173 0.50173 -0.704651
-0.627163 0.46188 -0.627163
-0.46188 0.627163 -0.627163
-0.57735 0.57735 -0.57735
-0.376298 0.53066 -0.759474
-0.50173 0.50173 -0.704651
-0.34641 0.663325 -0.663325
-0.46188 0.627163 -0.627163
-0.250865 0.550394 -0.796325
-0.376298 0.53066 -0.759474
-0.23094 0.687992 -0.687992
-0.34641 0.663325 -0.663325
-0.125433 0.561902 -0.817639
-0.250865 0.550394 -0.796325
-0.11547 0.702377 -0.702377
-0.23094 0.687992 -0.687992
1.37987e-12 0.565685 -0.824621
-0.125433 0.561902 -0.817639
1.58785e-12 0.707107 -0.707107
-0.11547 0.702377 -0.702377
0.125433 0.561902 -0.817639
1.37987e-12 0.565685 -0.824621
0.11547 0.702377 -0.702377
1.58785e-12 0.707107 -0.707107
0.250865 0.550394 -0.796325
0.125433 0.561902 -0.817639
0.23094 0.687992 -0.687992
0.11547 0.702377 -0.702377
0.376298 0.53066 -0.759474
0.250865 0.550394 -0.796325
0.34641 0.663325 -0.663325
0.23094 0.687992 -0.687992
0.50173 0.50173 -0.704651
0.376298 0.53066 -0.759474
0.46188 0.627163 -0.627163
0.34641 0.663325 -0.663325
0.627163 0.46188 -0.627163
0.50173 0.50173 -0.704651
0.57735 0.57735 -0.57735
0.46188 0.627163 -0.627163
-0.53066 0.376298 -0.759474
-0.663325 0.34641 -0.663325
-0.50173 0.50173 -0.704651
-0.627163 0.46188 -0.627163
-0.397995 0.397995 -0.826559
-0.53066 0.376298 -0.759474
-0.376298 0.53066 -0.759474
-0.50173 0.50173 -0.704651
-0.26533 0.412795 -0.871321
-0.397995 0.397995 -0.826559
-0.250865 0.550394 -0.796325
-0.376298 0.53066 -0.759474
-0.132665 0.421426 -0.897106
-0.26533 0.412795 -0.871321
-0.125433 0.561902 -0.817639
-0.250865 0.550394 -0.796325
1.09453e-12 0.424264 -0.905539
-0.132665 0.421426 -0.897106
1.37987e-12 0.565685 -0.824621
-0.125433 0.561902 -0.817639
0.132665 0.421426 -0.897106
1.09453e-12 0.424264 -0.905539
0.125433 0.561902 -0.817639
1.37987e-12 0.565685 -0.824621
0.26533 0.412795 -0.871321
0.132665 0.421426 -0.897106
0.250865 0.550394 -0.796325
0.125433 0.561902 -0.817639
0.397995 0.397995 -0.826559
0.26533 0.412795 -0.871321
0.376298 0.53066 -0.759474
0.250865 0.550394 -0.796325
0.53066 0.376298 -0.759474
0.397995 0.397995 -0.826559
0.50173 0.50173 -0.704651
0.376298 0.53066 -0.759474
0.663325 0.34641 -0.663325
0.53066 0.376298 -0.759474
0.627163 0.46188 -0.627163
0.50173 0.50173 -0.704651
-0.550394 0.250865 -0.796325
-0.687992 0.23094 -0.687992
-0.53066 0.376298 -0.759474
-0.663325 0.34641 -0.663325
-0.412795 0.26533 -0.871321
-0.550394 0.250865 -0.796325
-0.397995 0.397995 -0.826559
-0.53066 0.376298 -0.759474
-0.275197 0.275197 -0.921159
-0.412795 0.26533 -0.871321
-0.26533 0.412795 -0.871321
-0.397995 0.397995 -0.826559
-0.137598 0.280951 -0.949807
-0.275197 0.275197 -0.921159
-0.132665 0.421426 -0.897106
-0.26533 0.412795 -0.871321
7.56874e-13 0.282843 -0.959166
-0.137598 0.280951 -0.949807
1.09453e-12 0.424264 -0.905539
-0.132665 0.421426 -0.897106
0.137598 0.280951 -0.949807
7.56874e-13 0.282843 -0.959166
0.132665 0.421426 -0.897106
1.09453e-12 0.424264 -0.905539
0.275197 0.275197 -0.921159
0.137598 0.280951 -0.949807
0.26533 0.412795 -0.871321
0.132665 0.421426 -0.897106
0.412795 0.26533 -0.871321
0.275197 0.275197 -0.921159
0.397995 0.397995 -0.826559
0.26533 0.412795 -0.871321
0.550394 0.250865 -0.796325
0.412795 0.26533 -0.871321
0.53066 0.376298 -0.759474
0.397995 0.397995 -0.826559
0.687992 0.23094 -0.687992
0.550394 0.250865 -0.796325
0.663325 0.34641 -0.663325
0.53066 0.376298 -0.759474
-0.561902 0.125433 -0.817639
-0.702377 0.11547 -0.702377
-0.550394 0.250865 -0.796325
-0.687992 0.23094 -0.687992
-0.421426 0.132665 -0.897106
-0.561902 0.125433 -0.817639
-0.412795 0.26533 -0.871321
-0.550394 0.250865 -0.796325
-0.280951 0.137598 -0.949807
-0.421426 0.132665 -0.897106
-0.275197 0.275197 -0.921159
-0.412795 0.26533 -0.871321
-0.140475 0.140475 -0.980068
-0.280951 0.137598 -0.949807
-0.137598 0.280951 -0.949807
-0.275197 0.275197 -0.921159
3.8631e-13 0.141421 -0.989949
-0.140475 0.140475 -0.980068
7.56874e-13 0.282843 -0.959166
-0.137598 0.280951 -0.949807
0.140475 0.140475 -0.980068
3.8631e-13 0.141421 -0.989949
0.137598 0.280951 -0.949807
7.56874e-13 0.282843 -0.959166
0.280951 0.137598 -0.949807
0.140475 0.140475 -0.980068
0.275197 0.275197 -0.921159
0.137598 0.280951 -0.949807
0.421426 0.132665 -0.897106
0.280951 0.137598 -0.949807
0.412795 0.26533 -0.871321
0.275197 0.275197 -0.921159
0.561902 0.125433 -0.817639
0.421426 0.132665 -0.897106
0.550394 0.250865 -0.796325
0.412795 0.26533 -0.871321
0.702377 0.11547 -0.702377
0.561902 0.125433 -0.817639
0.687992 0.23094 -0.687992
0.550394 0.250865 -0.796325
-0.565685 1.3799e-12 -0.824621
-0.707107 1.58785e-12 -0.707107
-0.561902 0.125433 -0.817639
-0.702377 0.11547 -0.702377
-0.424264 1.09462e-12 -0.905539
-0.565685 1.3799e-12 -0.824621
-0.421426 0.132665 -0.897106
-0.561902 0.125433 -0.817639
-0.282843 7.56821e-13 -0.959166
-0.424264 1.09462e-12 -0.905539
-0.280951 0.137598 -0.949807
-0.421426 0.132665 -0.897106
-0.141421 3.86342e-13 -0.989949
-0.282843 7.56821e-13 -0.959166
-0.140475 0.140475 -0.980068
-0.280951 0.137598 -0.949807
0 -5.71196e-28 -1
-0.141421 3.86342e-13 -0.989949
3.8631e-13 0.141421 -0.989949
-0.140475 0.140475 -0.980068
0.141421 -3.86342e-13 -0.989949
0 -5.71196e-28 -1
0.140475 0.140475 -0.980068
3.8631e-13 0.141421 -0.989949
0.282843 -7.56897e-13 -0.959166
0.141421 -3.86342e-13 -0.989949
0.280951 0.137598 -0.949807
0.140475 0.140475 -0.980068
0.424264 -1.09455e-12 -0.905539
0.282843 -7.56897e-13 -0.959166
0.421426 0.132665 -0.897106
0.280951 0.137598 -0.949807
0.565685 -1.37985e-12 -0.824621
0.424264 -1.09455e-12 -0.905539
0.561902 0.125433 -0.817639
0.421426 0.132665 -0.897106
0.707107 -1.58785e-12 -0.707107
0.565685 -1.37985e-12 -0.824621
0.702377 0.11547 -0.702377
0.561902 0.125433 -0.817639
-0.561902 -0.125433 -0.817639
-0.702377 -0.11547 -0.702377
-0.565685 1.3799e-12 -0.824621
-0.707107 1.58785e-12 -0.707107
-0.421426 -0.132665 -0.897106
-0.561902 -0.125433 -0.817639
-0.424264 1.09462e-12 -0.905539
-0.565685 1.3799e-12 -0.824621
-0.280951 -0.137598 -0.949807
-0.421426 -0.132665 -0.897106
-0.282843 7.56821e-13 -0.959166
-0.424264 1.09462e-12 -0.905539
-0.140475 -0.140475 -0.980068
-0.280951 -0.137598 -0.949807
-0.141421 3.86342e-13 -0.989949
-0.282843 7.56821e-13 -0.959166
-3.8631e-13 -0.141421 -0.989949
-0.140475 -0.140475 -0.980068
0 -5.71196e-28 -1
-0.141421 3.86342e-13 -0.989949
0.140475 -0.140475 -0.980068
-3.8631e-13 -0.141421 -0.989949
0.141421 -3.86342e-13 -0.989949
0 -5.71196e-28 -1
0.280951 -0.137598 -0.949807
0.140475 -0.140475 -0.980068
0.282843 -7.56897e-13 -0.959166
0.141421 -3.86342e-13 -0.989949
0.421426 -0.132665 -0.897106
0.280951 -0.137598 -0.949807
0.424264 -1.09455e-12 -0.905539
0.282843 -7.56897e-13 -0.959166
0.561902 -0.125433 -0.817639
0.421426 -0.132665 -0.897106
0.565685 -1.37985e-12 -0.824621
0.424264 -1.09455e-12 -0.905539
0.702377 -0.11547 -0.702377
0.561902 -0.125433 -0.817639
0.707107 -1.58785e-12 -0.707107
0.565685 -1.37985e-12 -0.824621
-0.550394 -0.250865 -0.796325
-0.687992 -0.23094 -0.687992
-0.561902 -0.125433 -0.817639
-0.702377 -0.11547 -0.702377
-0.412795 -0.26533 -0.871321
-0.550394 -0.250865 -0.796325
-0.421426 -0.132665 -0.897106
-0.561902 -0.125433 -0.817639
-0.275197 -0.275197 -0.921159
-0.412795 -0.26533 -0.871321
-0.280951 -0.137598 -0.949807
-0.421426 -0.132665 -0.897106
-0.137598 -0.280951 -0.949807
-0.275197 -0.275197 -0.921159
-0.140475 -0.140475 -0.980068
-0.280951 -0.137598 -0.949807
-7.56855e-13 -0.282843 -0.959166
-0.137598 -0.280951 -0.949807
-3.8631e-13 -0.141421 -0.989949
-0.140475 -0.140475 -0.980068
0.137598 -0.280951 -0.949807
-7.56855e-13 -0.282843 -0.959166
0.140475 -0.140475 -0.980068
-3.8631e-13 -0.141421 -0.989949
0.275197 -0.275197 -0.921159
0.137598 -0.280951 -0.949807
0.280951 -0.137598 -0.949807
0.140475 -0.140475 -0.980068
0.412795 -0.26533 -0.871321
0.275197 -0.275197 -0.921159
0.421426 -0.132665 -0.897106
0.280951 -0.137598 -0.949807
0.550394 -0.250865 -0.796325
0.412795 -0.26533 -0.871321
0.561902 -0.125433 -0.817639
0.421426 -0.132665 -0.897106
0.687992 -0.23094 -0.687992
0.550394 -0.250865 -0.796325
0.702377 -0.11547 -0.702377
0.561902 -0.125433 -0.817639
-0.53066 -0.376298 -0.759474
-0.663325 -0.34641 -0.663325
-0.550394 -0.250865 -0.796325
-0.687992 -0.23094 -0.687992
-0.397995 -0.397995 -0.826559
-0.53066 -0.376298 -0.759474
-0.412795 -0.26533 -0.871321
-0.550394 -0.250865 -0.796325
-0.26533 -0.412795 -0.871321
-0.397995 -0.397995 -0.826559
-0.275197 -0.275197 -0.921159
-0.412795 -0.26533 -0.871321
-0.132665 -0.421426 -0.897106
-0.26533 -0.412795 -0.871321
-0.137598 -0.280951 -0.949807
-0.275197 -0.275197 -0.921159
-1.09459e-12 -0.424264 -0.905539
-0.132665 -0.421426 -0.897106
-7.56855e-13 -0.282843 -0.959166
-0.137598 -0.280951 -0.949807
0.132665 -0.421426 -0.897106
-1.09459e-12 -0.424264 -0.905539
0.137598 -0.280951 -0.949807
-7.56855e-13 -0.282843 -0.959166
0.26533 -0.412795 -0.871321
0.132665 -0.421426 -0.897106
0.275197 -0.275197 -0.921159
0.137598 -0.280951 -0.949807
0.397995 -0.397995 -0.826559
0.26533 -0.412795 -0.871321
0.412795 -0.26533 -0.871321
0.275197 -0.275197 -0.921159
0.53066 -0.376298 -0.759474
0.397995 -0.397995 -0.826559
0.550394 -0.250865 -0.796325
0.412795 -0.26533 -0.871321
0.663325 -0.34641 -0.663325
0.53066 -0.376298 -0.759474
0.687992 -0.23094 -0.687992
0.550394 -0.250865 -0.796325
-0.50173 -0.50173 -0.704651
-0.627163 -0.46188 -0.627163
-0.53066 -0.376298 -0.759474
-0.663325 -0.34641 -0.663325
-0.376298 -0.53066 -0.759474
-0.50173 -0.50173 -0.704651
-0.397995 -0.397995 -0.826559
-0.53066 -0.376298 -0.759474
-0.250865 -0.550394 -0.796325
-0.376298 -0.53066 -0.759474
-0.26533 -0.412795 -0.871321
-0.397995 -0.397995 -0.826559
-0.125433 -0.561902 -0.817639
-0.250865 -0.550394 -0.796325
-0.132665 -0.421426 -0.897106
-0.26533 -0.412795 -0.871321
-1.37992e-12 -0.565685 -0.824621
-0.125433 -0.561902 -0.817639
-1.09459e-12 -0.424264 -0.905539
[...]
POINT_DATA 2400
SCALARS phi double 1
LOOKUP_TABLE default
-0.4896 -0.18 -0.18 0 -0.7304 -0.4896 -0.32 -0.18 -0.9024 -0.7304 -0.42 -0.32 -1.0056 -0.9024 -0.48 -0.42 -1.04 -1.0056 -0.5 -0.48 -1.0056 -1.04 -0.48 -0.5 -0.9024 -1.0056 -0.42 -0.48 -0.7304 -0.9024 -0.32 -0.42 -0.4896 -0.7304 -0.18 -0.32 -0.18 -0.4896 0 -0.18 -0.7304 -0.32 -0.4896 -0.18 -1.0496 -0.7304 -0.7304 -0.4896 -1.2776 -1.0496 -0.9024 -0.7304 -1.4144 -1.2776 -1.0056 -0.9024 -1.46 -1.4144 -1.04 -1.0056 -1.4144 -1.46 -1.0056 -1.04 -1.2776 -1.4144 -0.9024 -1.0056 -1.0496 -1.2776 -0.7304 -0.9024 -0.7304 -1.0496 -0.4896 -0.7304 -0.32 -0.7304 -0.18 -0.4896 -0.9024 -0.42 -0.7304 -0.32 -1.2776 -0.9024 -1.0496 -0.7304 -1.5456 -1.2776 -1.2776 -1.0496 -1.7064 -1.5456 -1.4144 -1.2776 -1.76 -1.7064 -1.46 -1.4144 -1.7064 -1.76 -1.4144 -1.46 -1.5456 -1.7064 -1.2776 -1.4144 -1.2776 -1.5456 -1.0496 -1.2776 -0.9024 -1.2776 -0.7304 -1.0496 -0.42 -0.9024 -0.32 -0.7304 -1.0056 -0.48 -0.9024 -0.42 -1.4144 -1.0056 -1.2776 -0.9024 -1.7064 -1.4144 -1.5456 -1.2776 -1.8816 -1.7064 -1.7064 -1.5456 -1.94 -1.8816 -1.76 -1.7064 -1.8816 -1.94 -1.7064 -1.76 -1.7064 -1.8816 -1.5456 -1.7064 -1.4144 -1.7064 -1.2776 -1.5456 -1.0056 -1.4144 -0.9024 -1.2776 -0.48 -1.0056 -0.42 -0.9024 -1.04 -0.5 -1.0056 -0.48 -1.46 -1.04 -1.4144 -1.0056 -1.76 -1.46 -1.7064 -1.4144 -1.94 -1.76 -1.8816 -1.7064 -2 -1.94 -1.94 -1.8816 -1.94 -2 -1.8816 -1.94 -1.76 -1.94 -1.7064 -1.8816 -1.46 -1.76 -1.4144 -1.7064 -1.04 -1.46 -1.0056 -1.4144 -0.5 -1.04 -0.48 -1.0056 -1.0056 -0.48 -1.04 -0.5 -1.4144 -1.0056 -1.46 -1.04 -1.7064 -1.4144 -1.76 -1.46 -1.8816 -1.7064 -1.94 -1.76 -1.94 -1.8816 -2 -1.94 -1.8816 -1.94 -1.94 -2 -1.7064 -1.8816 -1.76 -1.94 -1.4144 -1.7064 -1.46 -1.76 -1.0056 -1.4144 -1.04 -1.46 -0.48 -1.0056 -0.5 -1.04 -0.9024 -0.42 -1.0056 -0.48 -1.2776 -0.9024 -1.4144 -1.0056 -1.5456 -1.2776 -1.7064 -1.4144 -1.7064 -1.5456 -1.8816 -1.7064 -1.76 -1.7064 -1.94 -1.8816 -1.7064 -1.76 -1.8816 -1.94 -1.5456 -1.7064 -1.7064 -1.8816 -1.2776 -1.5456 -1.4144 -1.7064 -0.9024 -1.2776 -1.0056 -1.4144 -0.42 -0.9024 -0.48 -1.0056 -0.7304 -0.32 -0.9024 -0.42 -1.0496 -0.7304 -1.2776 -0.9024 -1.2776 -1.0496 -1.5456 -1.2776 -1.4144 -1.2776 -1.7064 -1.5456 -1.46 -1.4144 -1.76 -1.7064 -1.4144 -1.46 -1.7064 -1.76 -1.2776 -1.4144 -1.5456 -1.7064 -1.0496 -1.2776 -1.2776 -1.5456 -0.7304 -1.0496 -0.9024 -1.2776 -0.32 -0.7304 -0.42 -0.9024 -0.4896 -0.18 -0.7304 -0.32 -0.7304 -0.4896 -1.0496 -0.7304 -0.9024 -0.7304 -1.2776 -1.0496 -1.0056 -0.9024 -1.4144 -1.2776 -1.04 -1.0056 -1.46 -1.4144 -1.0056 -1.04 -1.4144 -1.46 -0.9024 -1.0056 -1.2776 -1.4144 -0.7304 -0.9024 -1.0496 -1.2776 -0.4896 -0.7304 -0.7304 -1.0496 -0.18 -0.4896 -0.32 -0.7304 -0.18 0 -0.4896 -0.18 -0.32 -0.18 -0.7304 -0.4896 -0.42 -0.32 -0.9024 -0.7304 -0.48 -0.42 -1.0056 -0.9024 -0.5 -0.48 -1.04 -1.0056 -0.48 -0.5 -1.0056 -1.04 -0.42 -0.48 -0.9024 -1.0056 -0.32 -0.42 -0.7304 -0.9024 -0.18 -0.32 -0.4896 -0.7304 0 -0.18 -0.18 -0.4896 -0.18 -0.4896 0 -0.18 -0.4896 -0.7304 -0.18 -0.32 -0.7304 -0.9024 -0.32 -0.42 -0.9024 -1.0056 -0.42 -0.48 -1.0056 -1.04 -0.48 -0.5 -1.04 -1.0056 -0.5 -0.48 -1.0056 -0.9024 -0.48 -0.42 -0.9024 -0.7304 -0.42 -0.32 -0.7304 -0.4896 -0.32 -0.18 -0.4896 -0.18 -0.18 0 -0.32 -0.7304 -0.18 -0.4896 -0.7304 -1.0496 -0.4896 -0.7304 -1.0496 -1.2776 -0.7304 -0.9024 -1.2776 -1.4144 -0.9024 -1.0056 -1.4144 -1.46 -1.0056 -1.04 -1.46 -1.4144 -1.04 -1.0056 -1.4144 -1.2776 -1.0056 -0.9024 -1.2776 -1.0496 -0.9024 -0.7304 -1.0496 -0.7304 -0.7304 -0.4896 -0.7304 -0.32 -0.4896 -0.18 -0.42 -0.9024 -0.32 -0.7304 -0.9024 -1.2776 -0.7304 -1.0496 -1.2776 -1.5456 -1.0496 -1.2776 -1.5456 -1.7064 -1.2776 -1.4144 -1.7064 -1.76 -1.4144 -1.46 -1.76 -1.7064 -1.46 -1.4144 -1.7064 -1.5456 -1.4144 -1.2776 -1.5456 -1.2776 -1.2776 -1.0496 -1.2776 -0.9024 -1.0496 -0.7304 -0.9024 -0.42 -0.7304 -0.32 -0.48 -1.0056 -0.42 -0.9024 -1.0056 -1.4144 -0.9024 -1.2776 -1.4144 -1.7064 -1.2776 -1.5456 -1.7064 -1.8816 -1.5456 -1.7064 -1.8816 -1.94 -1.7064 -1.76 -1.94 -1.8816 -1.76 -1.7064 -1.8816 -1.7064 -1.7064 -1.5456 -1.7064 -1.4144 -1.5456 -1.2776 -1.4144 -1.0056 -1.2776 -0.9024 -1.0056 -0.48 -0.9024 -0.42 -0.5 -1.04 -0.48 -1.0056 -1.04 -1.46 -1.0056 -1.4144 -1.46 -1.76 -1.4144 -1.7064 -1.76 -1.94 -1.7064 -1.8816 -1.94 -2 -1.8816 -1.94 -2 -1.94 -1.94 -1.8816 -1.94 -1.76 -1.8816 -1.7064 -1.76 -1.46 -1.7064 -1.4144 -1.46 -1.04 -1.4144 -1.0056 -1.04 -0.5 -1.0056 -0.48 -0.48 -1.0056 -0.5 -1.04 -1.0056 -1.4144 -1.04 -1.46 -1.4144 -1.7064 -1.46 -1.76 -1.7064 -1.8816 -1.76 -1.94 -1.8816 -1.94 -1.94 -2 -1.94 -1.8816 -2 -1.94 -1.8816 -1.7064 -1.94 -1.76 -1.7064 -1.4144 -1.76 -1.46 -1.4144 -1.0056 -1.46 -1.04 -1.0056 -0.48 -1.04 -0.5 -0.42 -0.9024 -0.48 -1.0056 -0.9024 -1.2776 -1.0056 -1.4144 -1.2776 -1.5456 -1.4144 -1.7064 -1.5456 -1.7064 -1.7064 -1.8816 -1.7064 -1.76 -1.8816 -1.94 -1.76 -1.7064 -1.94 -1.8816 -1.7064 -1.5456 -1.8816 -1.7064 -1.5456 -1.2776 -1.7064 -1.4144 -1.2776 -0.9024 -1.4144 -1.0056 -0.9024 -0.42 -1.0056 -0.48 -0.32 -0.7304 -0.42 -0.9024 -0.7304 -1.0496 -0.9024 -1.2776 -1.0496 -1.2776 -1.2776 -1.5456 -1.2776 -1.4144 -1.5456 -1.7064 -1.4144 -1.46 -1.7064 -1.76 -1.46 -1.4144 -1.76 -1.7064 -1.4144 -1.2776 -1.7064 -1.5456 -1.2776 -1.0496 -1.5456 -1.2776 -1.0496 -0.7304 -1.2776 -0.9024 -0.7304 -0.32 -0.9024 -0.42 -0.18 -0.4896 -0.32 -0.7304 -0.4896 -0.7304 -0.7304 -1.0496 -0.7304 -0.9024 -1.0496 -1.2776 -0.9024 -1.0056 -1.2776 -1.4144 -1.0056 -1.04 -1.4144 -1.46 -1.04 -1.0056 -1.46 -1.4144 -1.0056 -0.9024 -1.4144 -1.2776 -0.9024 -0.7304 -1.2776 -1.0496 -0.7304 -0.4896 -1.0496 -0.7304 -0.4896 -0.18 -0.7304 -0.32 0 -0.18 -0.18 -0.4896 -0.18 -0.32 -0.4896 -0.7304 -0.32 -0.42 -0.7304 -0.9024 -0.42 -0.48 -0.9024 -1.0056 -0.48 -0.5 -1.0056 -1.04 -0.5 -0.48 -1.04 -1.0056 -0.48 -0.42 -1.0056 -0.9024 -0.42 -0.32 -0.9024 -0.7304 -0.32 -0.18 -0.7304 -0.4896 -0.18 0 -0.4896 -0.18 0.2448 0.36 -0.18 0 0.5752 0.64 0.2448 0.36 0.8112 0.84 0.5752 0.64 0.9528 0.96 0.8112 0.84 1 1 0.9528 0.96 0.9528 0.96 1 1 0.8112 0.84 0.9528 0.96 0.5752 0.64 0.8112 0.84 0.2448 0.36 0.5752 0.64 -0.18 0 0.2448 0.36 0.1552 0.2448 -0.32 -0.18 0.5248 0.5752 0.1552 0.2448 0.7888 0.8112 0.5248 0.5752 0.9472 0.9528 0.7888 0.8112 1 1 0.9472 0.9528 0.9472 0.9528 1 1 0.7888 0.8112 0.9472 0.9528 0.5248 0.5752 0.7888 0.8112 0.1552 0.2448 0.5248 0.5752 -0.32 -0.18 0.1552 0.2448 0.0912 0.1552 -0.42 -0.32 0.4888 0.5248 0.0912 0.1552 0.7728 0.7888 0.4888 0.5248 0.9432 0.9472 0.7728 0.7888 1 1 0.9432 0.9472 0.9432 0.9472 1 1 0.7728 0.7888 0.9432 0.9472 0.4888 0.5248 0.7728 0.7888 0.0912 0.1552 0.4888 0.5248 -0.42 -0.32 0.0912 0.1552 0.0528 0.0912 -0.48 -0.42 0.4672 0.4888 0.0528 0.0912 0.7632 0.7728 0.4672 0.4888 0.9408 0.9432 0.7632 0.7728 1 1 0.9408 0.9432 0.9408 0.9432 1 1 0.7632 0.7728 0.9408 0.9432 0.4672 0.4888 0.7632 0.7728 0.0528 0.0912 0.4672 0.4888 -0.48 -0.42 0.0528 0.0912 0.04 0.0528 -0.5 -0.48 0.46 0.4672 0.04 0.0528 0.76 0.7632 0.46 0.4672 0.94 0.9408 0.76 0.7632 1 1 0.94 0.9408 0.94 0.9408 1 1 0.76 0.7632 0.94 0.9408 0.46 0.4672 0.76 0.7632 0.04 0.0528 0.46 0.4672 -0.5 -0.48 0.04 0.0528 0.0528 0.04 -0.48 -0.5 0.4672 0.46 0.0528 0.04 0.7632 0.76 0.4672 0.46 0.9408 0.94 0.7632 0.76 1 1 0.9408 0.94 0.9408 0.94 1 1 0.7632 0.76 0.9408 0.94 0.4672 0.46 0.7632 0.76 0.0528 0.04 0.4672 0.46 -0.48 -0.5 0.0528 0.04 0.0912 0.0528 -0.42 -0.48 0.4888 0.4672 0.0912 0.0528 0.7728 0.7632 0.4888 0.4672 0.9432 0.9408 0.7728 0.7632 1 1 0.9432 0.9408 0.9432 0.9408 1 1 0.7728 0.7632 0.9432 0.9408 0.4888 0.4672 0.7728 0.7632 0.0912 0.0528 0.4888 0.4672 -0.42 -0.48 0.0912 0.0528 0.1552 0.0912 -0.32 -0.42 0.5248 0.4888 0.1552 0.0912 0.7888 0.7728 0.5248 0.4888 0.9472 0.9432 0.7888 0.7728 1 1 0.9472 0.9432 0.9472 0.9432 1 1 0.7888 0.7728 0.9472 0.9432 0.5248 0.4888 0.7888 0.7728 0.1552 0.0912 0.5248 0.4888 -0.32 -0.42 0.1552 0.0912 0.2448 0.1552 -0.18 -0.32 0.5752 0.5248 0.2448 0.1552 0.8112 0.7888 0.5752 0.5248 0.9528 0.9472 0.8112 0.7888 1 1 0.9528 0.9472 0.9528 0.9472 1 1 0.8112 0.7888 0.9528 0.9472 0.5752 0.5248 0.8112 0.7888 0.2448 0.1552 0.5752 0.5248 -0.18 -0.32 0.2448 0.1552 0.36 0.2448 0 -0.18 0.64 0.5752 0.36 0.2448 0.84 0.8112 0.64 0.5752 0.96 0.9528 0.84 0.8112 1 1 0.96 0.9528 0.96 0.9528 1 1 0.84 0.8112 0.96 0.9528 0.64 0.5752 0.84 0.8112 0.36 0.2448 0.64 0.5752 0 -0.18 0.36 0.2448 0.36 0 0.2448 -0.18 0.64 0.36 0.5752 0.2448 0.84 0.64 0.8112 0.5752 0.96 0.84 0.9528 0.8112 1 0.96 1 0.9528 0.96 1 0.9528 1 0.84 0.96 0.8112 0.9528 0.64 0.84 0.5752 0.8112 0.36 0.64 0.2448 0.5752 0 0.36 -0.18 0.2448 0.2448 -0.18 0.1552 -0.32 0.5752 0.2448 0.5248 0.1552 0.8112 0.5752 0.7888 0.5248 0.9528 0.8112 0.9472 0.7888 1 0.9528 1 0.9472 0.9528 1 0.9472 1 0.8112 0.9528 0.7888 0.9472 0.5752 0.8112 0.5248 0.7888 0.2448 0.5752 0.1552 0.5248 -0.18 0.2448 -0.32 0.1552 0.1552 -0.32 0.0912 -0.42 0.5248 0.1552 0.4888 0.0912 0.7888 0.5248 0.7728 0.4888 0.9472 0.7888 0.9432 0.7728 1 0.9472 1 0.9432 0.9472 1 0.9432 1 0.7888 0.9472 0.7728 0.9432 0.5248 0.7888 0.4888 0.7728 0.1552 0.5248 0.0912 0.4888 -0.32 0.1552 -0.42 0.0912 0.0912 -0.42 0.0528 -0.48 0.4888 0.0912 0.4672 0.0528 0.7728 0.4888 0.7632 0.4672 0.9432 0.7728 0.9408 0.7632 1 0.9432 1 0.9408 0.9432 1 0.9408 1 0.7728 0.9432 0.7632 0.9408 0.4888 0.7728 0.4672 0.7632 0.0912 0.4888 0.0528 0.4672 -0.42 0.0912 -0.48 0.0528 0.0528 -0.48 0.04 -0.5 0.4672 0.0528 0.46 0.04 0.7632 0.4672 0.76 0.46 0.9408 0.7632 0.94 0.76 1 0.9408 1 0.94 0.9408 1 0.94 1 0.7632 0.9408 0.76 0.94 0.4672 0.7632 0.46 0.76 0.0528 0.4672 0.04 0.46 -0.48 0.0528 -0.5 0.04 0.04 -0.5 0.0528 -0.48 0.46 0.04 0.4672 0.0528 0.76 0.46 0.7632 0.4672 0.94 0.76 0.9408 0.7632 1 0.94 1 0.9408 0.94 1 0.9408 1 0.76 0.94 0.7632 0.9408 0.46 0.76 0.4672 0.7632 0.04 0.46 0.0528 0.4672 -0.5 0.04 -0.48 0.0528 0.0528 -0.48 0.0912 -0.42 0.4672 0.0528 0.4888 0.0912 0.7632 0.4672 0.7728 0.4888 0.9408 0.7632 0.9432 0.7728 1 0.9408 1 0.9432 0.9408 1 0.9432 1 0.7632 0.9408 0.7728 0.9432 0.4672 0.7632 0.4888 0.7728 0.0528 0.4672 0.0912 0.4888 -0.48 0.0528 -0.42 0.0912 0.0912 -0.42 0.1552 -0.32 0.4888 0.0912 0.5248 0.1552 0.7728 0.4888 0.7888 0.5248 0.9432 0.7728 0.9472 0.7888 1 0.9432 1 0.9472 0.9432 1 0.9472 1 0.7728 0.9432 0.7888 0.9472 0.4888 0.7728 0.5248 0.7888 0.0912 0.4888 0.1552 0.5248 -0.42 0.0912 -0.32 0.1552 0.1552 -0.32 0.2448 -0.18 0.5248 0.1552 0.5752 0.2448 0.7888 0.5248 0.8112 0.5752 0.9472 0.7888 0.9528 0.8112 1 0.9472 1 0.9528 0.9472 1 0.9528 1 0.7888 0.9472 0.8112 0.9528 0.5248 0.7888 0.5752 0.8112 0.1552 0.5248 0.2448 0.5752 -0.32 0.1552 -0.18 0.2448 0.2448 -0.18 0.36 0 0.5752 0.2448 0.64 0.36 0.8112 0.5752 0.84 0.64 0.9528 0.8112 0.96 0.84 1 0.9528 1 0.96 0.9528 1 0.96 1 0.8112 0.9528 0.84 0.96 0.5752 0.8112 0.64 0.84 0.2448 0.5752 0.36 0.64 -0.18 0.2448 0 0.36 0.2448 0.36 -0.18 0 0.5752 0.64 0.2448 0.36 0.8112 0.84 0.5752 0.64 0.9528 0.96 0.8112 0.84 1 1 0.9528 0.96 0.9528 0.96 1 1 0.8112 0.84 0.9528 0.96 0.5752 0.64 0.8112 0.84 0.2448 0.36 0.5752 0.64 -0.18 0 0.2448 0.36 0.1552 0.2448 -0.32 -0.18 0.5248 0.5752 0.1552 0.2448 0.7888 0.8112 0.5248 0.5752 0.9472 0.9528 0.7888 0.8112 1 1 0.9472 0.9528 0.9472 0.9528 1 1 0.7888 0.8112 0.9472 0.9528 0.5248 0.5752 0.7888 0.8112 0.1552 0.2448 0.5248 0.5752 -0.32 -0.18 0.1552 0.2448 0.0912 0.1552 -0.42 -0.32 0.4888 0.5248 0.0912 0.1552 0.7728 0.7888 0.4888 0.5248 0.9432 0.9472 0.7728 0.7888 1 1 0.9432 0.9472 0.9432 0.9472 1 1 0.7728 0.7888 0.9432 0.9472 0.4888 0.5248 0.7728 0.7888 0.0912 0.1552 0.4888 0.5248 -0.42 -0.32 0.0912 0.1552 0.0528 0.0912 -0.48 -0.42 0.4672 0.4888 0.0528 0.0912 0.7632 0.7728 0.4672 0.4888 0.9408 0.9432 0.7632 0.7728 1 1 0.9408 0.9432 0.9408 0.9432 1 1 0.7632 0.7728 0.9408 0.9432 0.4672 0.4888 0.7632 0.7728 0.0528 0.0912 0.4672 0.4888 -0.48 -0.42 0.0528 0.0912 0.04 0.0528 -0.5 -0.48 0.46 0.4672 0.04 0.0528 0.76 0.7632 0.46 0.4672 0.94 0.9408 0.76 0.7632 1 1 0.94 0.9408 0.94 0.9408 1 1 0.76 0.7632 0.94 0.9408 0.46 0.4672 0.76 0.7632 0.04 0.0528 0.46 0.4672 -0.5 -0.48 0.04 0.0528 0.0528 0.04 -0.48 -0.5 0.4672 0.46 0.0528 0.04 0.7632 0.76 0.4672 0.46 0.9408 0.94 0.7632 0.76 1 1 0.9408 0.94 0.9408 0.94 1 1 0.7632 0.76 0.9408 0.94 0.4672 0.46 0.7632 0.76 0.0528 0.04 0.4672 0.46 -0.48 -0.5 0.0528 0.04 0.0912 0.0528 -0.42 -0.48 0.4888 0.4672 0.0912 0.0528 0.7728 0.7632 0.4888 0.4672 0.9432 0.9408 0.7728 0.7632 1 1 0.9432 0.9408 0.9432 0.9408 1 1 0.7728 0.7632 0.9432 0.9408 0.4888 0.4672 0.7728 0.7632 0.0912 0.0528 0.4888 0.4672 -0.42 -0.48 0.0912 0.0528 0.1552 0.0912 -0.32 -0.42 0.5248 0.4888 0.1552 0.0912 0.7888 0.7728 0.5248 0.4888 0.9472 0.9432 0.7888 0.7728 1 1 0.9472 0.9432 0.9472 0.9432 1 1 0.7888 0.7728 0.9472 0.9432 0.5248 0.4888 0.7888 0.7728 0.1552 0.0912 0.5248 0.4888 -0.32 -0.42 0.1552 0.0912 0.2448 0.1552 -0.18 -0.32 0.5752 0.5248 0.2448 0.1552 0.8112 0.7888 0.5752 0.5248 0.9528 0.9472 0.8112 0.7888 1 1 0.9528 0.9472 0.9528 0.9472 1 1 0.8112 0.7888 0.9528 0.9472 0.5752 0.5248 0.8112 0.7888 0.2448 0.1552 0.5752 0.5248 -0.18 -0.32 0.2448 0.1552 0.36 0.2448 0 -0.18 0.64 0.5752 0.36 0.2448 0.84 0.8112 0.64 0.5752 0.96 0.9528 0.84 0.8112 1 1 0.96 0.9528 0.96 0.9528 1 1 0.84 0.8112 0.96 0.9528 0.64 0.5752 0.84 0.8112 0.36 0.2448 0.64 0.5752 0 -0.18 0.36 0.2448 0.36 0 0.2448 -0.18 0.64 0.36 0.5752 0.2448 0.84 0.64 0.8112 0.5752 0.96 0.84 0.9528 0.8112 1 0.96 1 0.9528 0.96 1 0.9528 1 0.84 0.96 0.8112 0.9528 0.64 0.84 0.5752 0.8112 0.36 0.64 0.2448 0.5752 0 0.36 -0.18 0.2448 0.2448 -0.18 0.1552 -0.32 0.5752 0.2448 0.5248 0.1552 0.8112 0.5752 0.7888 0.5248 0.9528 0.8112 0.9472 0.7888 1 0.9528 1 0.9472 0.9528 1 0.9472 1 0.8112 0.9528 0.7888 0.9472 0.5752 0.8112 0.5248 0.7888 0.2448 0.5752 0.1552 0.5248 -0.18 0.2448 -0.32 0.1552 0.1552 -0.32 0.0912 -0.42 0.5248 0.1552 0.4888 0.0912 0.7888 0.5248 0.7728 0.4888 0.9472 0.7888 0.9432 0.7728 1 0.9472 1 0.9432 0.9472 1 0.9432 1 0.7888 0.9472 0.7728 0.9432 0.5248 0.7888 0.4888 0.7728 0.1552 0.5248 0.0912 0.4888 -0.32 0.1552 -0.42 0.0912 0.0912 -0.42 0.0528 -0.48 0.4888 0.0912 0.4672 0.0528 0.7728 0.4888 0.7632 0.4672 0.9432 0.7728 0.9408 0.7632 1 0.9432 1 0.9408 0.9432 1 0.9408 1 0.7728 0.9432 0.7632 0.9408 0.4888 0.7728 0.4672 0.7632 0.0912 0.4888 0.0528 0.4672 -0.42 0.0912 -0.48 0.0528 0.0528 -0.48 0.04 -0.5 0.4672 0.0528 0.46 0.04 0.7632 0.4672 0.76 0.46 0.9408 0.7632 0.94 0.76 1 0.9408 1 0.94 0.9408 1 0.94 1 0.7632 0.9408 0.76 0.94 0.4672 0.7632 0.46 0.76 0.0528 0.4672 0.04 0.46 -0.48 0.0528 -0.5 0.04 0.04 -0.5 0.0528 -0.48 0.46 0.04 0.4672 0.0528 0.76 0.46 0.7632 0.4672 0.94 0.76 0.9408 0.7632 1 0.94 1 0.9408 0.94 1 0.9408 1 0.76 0.94 0.7632 0.9408 0.46 0.76 0.4672 0.7632 0.04 0.46 0.0528 0.4672 -0.5 0.04 -0.48 0.0528 0.0528 -0.48 0.0912 -0.42 0.4672 0.0528 0.4888 0.0912 0.7632 0.4672 0.7728 0.4888 0.9408 0.7632 0.9432 0.7728 1 0.9408 1 0.9432 0.9408 1 0.9432 1 0.7632 0.9408 0.7728 0.9432 0.4672 0.7632 0.4888 0.7728 0.0528 0.4672 0.0912 0.4888 -0.48 0.0528 -0.42 0.0912 0.0912 -0.42 0.1552 -0.32 0.4888 0.0912 0.5248 0.1552 0.7728 0.4888 0.7888 0.5248 0.9432 0.7728 0.9472 0.7888 1 0.9432 1 0.9472 0.9432 1 0.9472 1 0.7728 0.9432 0.7888 0.9472 0.4888 0.7728 0.5248 0.7888 0.0912 0.4888 0.1552 0.5248 -0.42 0.0912 -0.32 0.1552 0.1552 -0.32 0.2448 -0.18 0.5248 0.1552 0.5752 0.2448 0.7888 0.5248 0.8112 0.5752 0.9472 0.7888 0.9528 0.8112 1 0.9472 1 0.9528 0.9472 1 0.9528 1 0.7888 0.9472 0.8112 0.9528 0.5248 0.7888 0.5752 0.8112 0.1552 0.5248 0.2448 0.5752 -0.32 0.1552 -0.18 0.2448 0.2448 -0.18 0.36 0 0.5752 0.2448 0.64 0.36 0.8112 0.5752 0.84 0.64 0.9528 0.8112 0.96 0.84 1 0.9528 1 0.96 0.9528 1 0.96 1 0.8112 0.9528 0.84 0.96 0.5752 0.8112 0.64 0.84 0.2448 0.5752 0.36 0.64 -0.18 0.2448 0 0.36 
SCALARS phi_n double 1
LOOKUP_TABLE default