# vtk DataFile Version 3.0
#This file was generated by the deal.II library on 2025/2/17 at 12:24:56
ASCII
DATASET UNSTRUCTURED_GRID

POINTS 8216 double
-0.526313 -0.00362735 -0.850283
-0.578874 0.0658511 -0.812753
-0.490046 0.086006 -0.867443
-0.53531 0.132571 -0.834187
0.578263 -0.698471 0.421605
0.637246 -0.661063 0.396123
0.574613 -0.660523 0.48325
0.638688 -0.618835 0.457297
0.0669037 0.598465 -0.798351
-0.0196463 0.595596 -0.803044
0.0479154 0.661643 -0.748287
-0.0318717 0.656937 -0.753272
0.73314 -0.224156 0.642075
0.781126 -0.226401 0.581881
0.755962 -0.150205 0.63715
0.804367 -0.151437 0.574508
-0.913715 0.289737 -0.284918
-0.890474 0.364121 -0.272897
-0.883146 0.296659 -0.363383
-0.859694 0.374292 -0.347608
-0.754262 0.626123 -0.197632
-0.799835 0.56548 -0.201235
-0.768649 0.628524 -0.118898
-0.814869 0.564873 -0.130029
0.694717 -0.621748 0.361661
0.701228 -0.577615 0.417899
0.637246 -0.661063 0.396123
0.638688 -0.618835 0.457297
0.388553 -0.49469 0.777373
0.440363 -0.43359 0.786181
0.342952 -0.454401 0.822134
0.389477 -0.397098 0.831036
0.0423264 0.0734882 0.996397
0.126723 0.0681414 0.989595
0.0405388 0.187965 0.981339
0.130467 0.172692 0.976297
0.51682 0.274554 0.810874
0.582527 0.278182 0.763726
0.499759 0.344201 0.794837
0.566497 0.350312 0.745898
0.510807 -0.795861 -0.325085
0.495575 -0.769738 -0.40238
0.578718 -0.751672 -0.316347
0.564806 -0.72897 -0.386777
-0.0160953 -0.115642 0.993161
-0.0942005 -0.176662 0.979753
0.0176047 -0.209132 0.977729
-0.0580434 -0.245262 0.967718
-0.454382 -0.883664 -0.112584
-0.461292 -0.886707 -0.0309906
-0.524758 -0.842099 -0.124495
-0.524631 -0.850238 -0.0431006
0.429802 -0.320339 0.844188
0.415513 -0.234807 0.878757
0.34709 -0.323751 0.880178
0.336785 -0.245135 0.909112
-0.874108 0.478215 -0.0851183
-0.889572 0.456777 0.0040438
-0.831284 0.553086 -0.0553459
-0.845726 0.532315 0.0372604
0.524622 -0.734854 0.429838
0.578263 -0.698471 0.421605
0.508503 -0.70422 0.495479
0.574613 -0.660523 0.48325
-0.0154324 0.817665 0.575487
0.0141682 0.769357 0.638662
0.0631057 0.828112 0.556999
0.0931988 0.782513 0.61562
-0.0304393 -0.723684 -0.68946
-0.0519075 -0.675819 -0.735238
0.0327162 -0.696076 -0.717222
0.000184616 -0.665537 -0.746365
0.795697 0.174332 -0.580064
0.747034 0.205196 -0.632325
0.801935 0.25269 -0.541338
0.743579 0.298605 -0.598268
0.686937 -0.303453 -0.660329
0.641341 -0.355873 -0.679733
0.661143 -0.258797 -0.704211
0.598266 -0.303142 -0.741743
-0.649907 -0.515718 0.558262
-0.695038 -0.449162 0.561406
-0.67578 -0.552896 0.48747
-0.742866 -0.477995 0.468691
-0.742866 -0.477995 0.468691
-0.775115 -0.37967 0.505022
-0.805327 -0.445794 0.390789
-0.823634 -0.372692 0.427467
0.976908 0.213559 0.00655809
0.955029 0.296464 -0.00527247
0.97298 0.213459 0.08801
0.953933 0.284069 0.0965271
0.843669 0.231544 -0.484365
0.83504 0.324196 -0.444528
0.879624 0.220951 -0.42124
0.878823 0.289609 -0.379206
-0.617227 -0.241001 -0.748966
-0.650546 -0.288789 -0.702418
-0.660904 -0.176209 -0.729491
-0.696595 -0.225581 -0.681079
-0.449387 0.892964 0.0258236
-0.533101 0.84547 0.0313569
-0.459141 0.880609 0.117119
-0.527722 0.842366 0.10922
0.842827 -0.289136 0.45392
0.865301 -0.220824 0.449991
0.803621 -0.295958 0.516335
0.824679 -0.225198 0.518835
0.585619 -0.800186 0.129432
0.587964 -0.805798 0.0706232
0.638943 -0.749965 0.171188
0.645597 -0.759776 0.0771052
0.371848 0.0734882 -0.92538
0.361712 0.152828 -0.919678
0.448084 0.0724722 -0.891049
0.438382 0.153376 -0.885605
0.578718 -0.751672 -0.316347
0.564806 -0.72897 -0.386777
0.625749 -0.716326 -0.308733
0.636396 -0.680562 -0.363091
-0.684953 -0.122416 0.718229
-0.67554 -0.0451853 0.735937
-0.743403 -0.0979832 0.661627
-0.725781 -0.0199245 0.687637
-0.820276 -0.52499 0.22701
-0.857437 -0.483677 0.175667
-0.804191 -0.571227 0.164249
-0.84255 -0.527202 0.110306
0.0318565 0.717691 -0.695633
0.0479154 0.661643 -0.748287
-0.0445086 0.716945 -0.695708
-0.0318717 0.656937 -0.753272
-0.975945 -0.0592754 -0.209805
-0.983054 -0.102653 -0.151879
-0.983361 -0.016572 -0.180903
-0.993785 -0.0239367 -0.108712
0.902408 -0.359447 0.237609
0.873828 -0.426971 0.23264
0.921563 -0.355791 0.15535
0.891694 -0.432621 0.133117
-0.608449 -0.479457 0.632385
-0.649907 -0.515718 0.558262
-0.555413 -0.558069 0.616503
-0.597887 -0.576361 0.557081
-0.967571 0.241832 -0.0729712
-0.981789 0.187765 -0.0289016
-0.957936 0.286663 -0.0135266
-0.972908 0.228471 0.0353694
-0.739179 -0.293212 0.606334
-0.76054 -0.191429 0.620431
-0.794695 -0.298278 0.528669
-0.812485 -0.221741 0.539166
-0.0397624 0.611087 0.790564
-0.0942099 0.668479 0.73774
-0.112951 0.584761 0.803304
-0.177263 0.623233 0.761681
0.517277 0.0716586 -0.852813
0.448084 0.0724722 -0.891049
0.511564 0.154676 -0.845209
0.438382 0.153376 -0.885605
0.0327162 -0.696076 -0.717222
0.000184616 -0.665537 -0.746365
0.0997407 -0.649224 -0.754029
0.0178282 -0.623394 -0.781704
0.697793 0.281059 0.658855
0.755316 0.278688 0.593153
0.676462 0.353732 0.645967
0.719724 0.367255 0.58917
-0.361158 0.755282 0.546913
-0.299046 0.757322 0.580548
-0.322112 0.807957 0.493406
-0.249772 0.795671 0.551835
0.238748 -0.25921 0.935847
0.336785 -0.245135 0.909112
0.235862 -0.156355 0.959126
0.318842 -0.158685 0.93443
0.583949 -0.811749 -0.00823738
0.644047 -0.764981 -0.00263288
0.587964 -0.805798 0.0706232
0.645597 -0.759776 0.0771052
-0.0160953 -0.115642 0.993161
0.0176047 -0.209132 0.977729
0.0423264 -0.0734882 0.996397
0.0886334 -0.177581 0.980107
0.0381431 0.265398 0.963384
0.0449127 0.327457 0.943798
-0.0596059 0.27167 0.960543
-0.0363182 0.34569 0.937646
-0.721541 0.551847 0.418143
-0.709033 0.60981 0.354124
-0.76853 0.511856 0.383882
-0.769095 0.552196 0.321826
-0.600648 -0.799188 0.0228335
-0.528403 -0.847346 0.0528723
-0.626798 -0.772578 0.101231
-0.572127 -0.808848 0.135781
-0.865251 -0.108408 0.489478
-0.885115 -0.0770937 0.458942
-0.862818 -0.15631 0.480741
-0.894749 -0.141434 0.423581
-0.858804 -0.212105 -0.466334
-0.874353 -0.25397 -0.41353
-0.889658 -0.140794 -0.434379
-0.903922 -0.192548 -0.381904
-0.561388 -0.134211 0.816597
-0.484028 -0.148768 0.862314
-0.559277 -0.056303 0.827067
-0.491065 -0.0506055 0.869652
0.188669 -0.554305 -0.810648
0.11174 -0.587414 -0.801536
0.127147 -0.500651 -0.856261
0.0413667 -0.555457 -0.830516
0.0761213 -0.451128 -0.889207
-0.00110016 -0.484116 -0.875003
0.0317126 -0.398181 -0.916758
-0.0357654 -0.424632 -0.904659
0.275165 -0.343779 0.897831
0.34709 -0.323751 0.880178
0.238748 -0.25921 0.935847
0.336785 -0.245135 0.909112
-0.308131 0.476834 0.823216
-0.232031 0.472097 0.850462
-0.287752 0.543725 0.788392
-0.208087 0.541883 0.814286
-0.581096 -0.0685836 -0.81094
-0.622061 0.00125211 -0.782967
-0.526313 -0.00362735 -0.850283
-0.578874 0.0658511 -0.812753
0.843514 0.455838 -0.284069
0.882213 0.401375 -0.246167
0.843238 0.39787 -0.361454
0.880957 0.348423 -0.320181
0.178715 0.871524 0.456626
0.163311 0.901158 0.401552
0.11138 0.872525 0.475705
0.0954165 0.907514 0.409041
0.309863 -0.95015 -0.0346324
0.272531 -0.957551 -0.0939313
0.373173 -0.925814 -0.060083
0.337089 -0.929987 -0.14661
0.549435 0.830508 0.0915321
0.516809 0.855658 0.0275307
0.50922 0.852184 0.120325
0.454007 0.886177 0.0925626
-0.0586167 0.934924 -0.349974
-0.0126244 0.953686 -0.30054
0.0177954 0.919774 -0.392044
0.0321823 0.943692 -0.329255
0.484737 -0.653603 0.581235
0.407501 -0.72466 0.555708
0.508503 -0.70422 0.495479
0.443909 -0.753594 0.48481
-0.867143 -0.439446 0.234415
-0.898165 -0.395064 0.192936
-0.857437 -0.483677 0.175667
-0.891089 -0.43531 0.12832
0.217624 -0.260527 -0.94062
0.15419 -0.308698 -0.938579
0.165113 -0.165996 -0.972205
0.0939825 -0.264239 -0.959867
0.661143 -0.258797 -0.704211
0.643735 -0.218104 -0.73351
0.704998 -0.226798 -0.671967
0.673472 -0.162526 -0.721125
0.0552372 0.878658 -0.474245
0.0177954 0.919774 -0.392044
0.134502 0.88562 -0.444506
0.110641 0.923152 -0.36817
0.108214 0.723421 -0.681874
0.0934016 0.778319 -0.620883
0.181583 0.724293 -0.665152
0.166923 0.776195 -0.607995
-0.942916 -0.262821 0.204534
-0.923399 -0.246492 0.294237
-0.963244 -0.190333 0.189563
-0.951213 -0.155758 0.266335
-0.529346 -0.833208 0.159867
-0.524654 -0.820242 0.227906
-0.572127 -0.808848 0.135781
-0.595926 -0.77431 0.212875
-0.298849 -0.150373 0.942379
-0.226794 -0.14764 0.962687
-0.289773 -0.0728917 0.954316
-0.219349 -0.101334 0.97037
-0.0279844 0.700132 0.713465
0.0414694 0.721648 0.691017
-0.0594281 0.747116 0.662032
0.0141682 0.769357 0.638662
-0.768649 0.628524 -0.118898
-0.814869 0.564873 -0.130029
-0.782773 0.620975 -0.040688
-0.831284 0.553086 -0.0553459
-0.600648 -0.799188 0.0228335
-0.651898 -0.758306 -0.00116102
-0.589231 -0.806036 -0.0558002
-0.642441 -0.76333 -0.0677999
0.517277 0.0716586 -0.852813
0.511564 0.154676 -0.845209
0.58979 0.0834668 -0.803232
0.58155 0.155518 -0.798507
0.215672 -0.0773571 -0.973397
0.101062 -0.0769415 -0.9919
0.169001 -4.13933e-17 -0.985616
0.0848059 -2.07715e-17 -0.996397
-0.641716 0.735532 0.217239
-0.605151 0.786646 0.122394
-0.709401 0.688016 0.152915
-0.683555 0.72511 0.0834701
0.447973 0.268288 0.852844
0.51682 0.274554 0.810874
0.431796 0.333404 0.83809
0.499759 0.344201 0.794837
-0.459141 0.880609 0.117119
-0.527722 0.842366 0.10922
-0.463532 0.866429 0.185576
-0.520211 0.835591 0.176547
0.288659 -0.0853657 -0.953619
0.251978 -6.17168e-17 -0.967733
0.371848 -0.0734882 -0.92538
0.33314 -8.15957e-17 -0.942877
-0.348828 0.931534 -0.102778
-0.289083 0.95564 -0.0564227
-0.301418 0.939615 -0.162084
-0.241705 0.963493 -0.115149
-0.163518 -0.364784 0.916621
-0.089712 -0.335305 0.937829
-0.200974 -0.297006 0.933486
-0.132642 -0.273147 0.952784
0.0552372 0.878658 -0.474245
0.134502 0.88562 -0.444506
0.0771907 0.830952 -0.550963
0.166945 0.832263 -0.528647
0.0423264 0.0734882 0.996397
0.0405388 0.187965 0.981339
-0.0633339 0.0818432 0.994631
-0.0705109 0.192332 0.978794
-0.806613 0.550093 0.216271
-0.826514 0.486515 0.283155
-0.760228 0.595163 0.260451
-0.769095 0.552196 0.321826
0.484737 -0.653603 0.581235
0.404656 -0.627559 0.665149
0.407501 -0.72466 0.555708
[...]
POINT_DATA 8216
SCALARS phi double 1
LOOKUP_TABLE default
-0.687986 -0.660898 -0.633868 -0.616693 0.150448 0.185704 0.19818 0.23796 -0.0665397 -0.113431 -0.0194344 -0.0639947 0.573876 0.566511 0.619569 0.611879 -0.453295 -0.39851 -0.473438 -0.415169 -0.162223 -0.21707 -0.128951 -0.189244 0.216721 0.270136 0.185704 0.23796 0.334418 0.395241 0.354068 0.410516 0.554033 0.590181 0.602395 0.637265 0.798715 0.809763 0.816926 0.828828 -0.304296 -0.337238 -0.244074 -0.274768 0.429205 0.353492 0.39197 0.331293 -0.723103 -0.68745 -0.743402 -0.706785 0.475295 0.527973 0.450591 0.498727 -0.239541 -0.213612 -0.166182 -0.137791 0.109628 0.150448 0.149601 0.19818 0.686561 0.708823 0.721789 0.743315 -0.719618 -0.72938 -0.688018 -0.703696 0.194242 0.159728 0.25562 0.221161 -0.138252 -0.196709 -0.150679 -0.222664 -0.302778 -0.290868 -0.369464 -0.374769 -0.374769 -0.323876 -0.428505 -0.383092 0.59682 0.621356 0.63529 0.6652 0.294517 0.356372 0.338554 0.393337 -0.801121 -0.818357 -0.780892 -0.799158 0.234054 0.17136 0.268333 0.21101 0.502291 0.545672 0.510571 0.557517 -0.0421777 -0.0733673 0.0300458 -0.018407 -0.239311 -0.201986 -0.184697 -0.146506 -0.244074 -0.274768 -0.198978 -0.203069 -0.044747 0.00733502 -0.0898118 -0.0292244 -0.557455 -0.581046 -0.603821 -0.627889 0.0268394 -0.0194344 -0.0116495 -0.0639947 -0.620772 -0.616889 -0.588582 -0.561409 0.389094 0.3385 0.359456 0.295103 -0.227106 -0.302778 -0.247581 -0.307532 -0.398062 -0.41022 -0.34117 -0.353407 -0.212068 -0.165132 -0.281156 -0.24664 0.678718 0.653761 0.635515 0.601813 -0.131487 -0.184697 -0.0892335 -0.146506 -0.688018 -0.703696 -0.649631 -0.691406 0.816398 0.811168 0.835526 0.835466 0.4691 0.51787 0.488355 0.547195 0.456303 0.498727 0.517664 0.545442 -0.117671 -0.0616015 -0.0733673 -0.018407 0.429205 0.39197 0.481035 0.444319 0.631076 0.655843 0.584041 0.621293 0.123931 0.127055 0.0633264 0.0521772 -0.686285 -0.659425 -0.646928 -0.620809 -0.241406 -0.251036 -0.268527 -0.305535 -0.766312 -0.768638 -0.730208 -0.736904 0.0604085 0.11459 0.105444 0.163403 -0.586366 -0.636502 -0.612967 -0.670099 -0.630149 -0.678 -0.639641 -0.680432 0.413393 0.450591 0.456303 0.498727 0.494418 0.543591 0.520638 0.572244 -0.727969 -0.699717 -0.687986 -0.660898 0.506022 0.517069 0.438329 0.45321 0.751174 0.730775 0.727519 0.703783 -0.336404 -0.388374 -0.305507 -0.368573 0.733433 0.697604 0.738531 0.714008 0.262354 0.319315 0.271857 0.322311 0.205307 0.119111 0.149601 0.087386 -0.53457 -0.548518 -0.581046 -0.597348 -0.490024 -0.544724 -0.484771 -0.56286 -0.150679 -0.153494 -0.0964124 -0.104526 0.22925 0.271857 0.28678 0.331715 0.0746194 0.125099 0.119953 0.167049 -0.498827 -0.43651 -0.480415 -0.418898 -0.599556 -0.556852 -0.620809 -0.576911 0.245715 0.293038 0.29508 0.324128 0.690579 0.724835 0.672705 0.708823 -0.128951 -0.189244 -0.100905 -0.166182 -0.686285 -0.703544 -0.723319 -0.734688 -0.131487 -0.0892335 -0.0648437 -0.0306484 -0.41627 -0.482122 -0.40725 -0.454278 0.154808 0.151112 0.0658669 0.0625906 0.782222 0.798715 0.799227 0.816926 0.268333 0.21101 0.293351 0.24507 -0.374002 -0.356917 -0.31253 -0.304089 0.239185 0.304103 0.237192 0.302343 0.193614 0.255576 0.217233 0.272757 0.22925 0.28678 0.178191 0.234504 0.554033 0.602395 0.504844 0.547925 -0.0201385 -0.0282059 0.0473627 0.0521772 0.205307 0.220204 0.119111 0.137633 -0.5535 -0.531596 -0.600496 -0.578298 0.0257388 0.0594717 0.0789836 0.113852 0.389094 0.359456 0.436589 0.406751 -0.100905 -0.166182 -0.0749769 -0.137791 0.583794 0.624209 0.548204 0.58641 0.0580696 0.129119 0.0579882 0.117044 0.28678 0.340881 0.234504 0.307415 0.358853 0.424499 0.34822 0.406324 -0.592048 -0.549632 -0.55514 -0.512156 -0.0616015 -0.00470038 -0.018407 0.0365104 0.354068 0.410516 0.379815 0.414964 -0.387418 -0.359193 -0.368573 -0.312887 0.670403 0.703783 0.645745 0.679469 -0.724096 -0.696992 -0.745827 -0.719455 0.73668 0.743685 0.754194 0.773532 -0.484771 -0.56286 -0.535531 -0.595443 -0.148174 -0.20455 -0.131502 -0.191903 0.354068 0.379815 0.296022 0.325628 -0.41627 -0.484771 -0.482122 -0.535531 0.704534 0.729391 0.725184 0.747975 0.608989 0.635844 0.578675 0.607821 -0.603189 -0.598011 -0.660287 -0.638531 -0.044747 -0.0898118 -0.0942435 -0.165132 0.154808 0.118026 0.210811 0.171803 0.442163 0.498522 0.449676 0.504844 -0.257988 -0.212068 -0.323876 -0.281156 -0.78647 -0.752903 -0.77302 -0.74077 -0.480415 -0.418898 -0.464674 -0.4029 -0.757379 -0.724709 -0.740758 -0.706128 0.0404126 0.119111 0.0873882 0.137633 0.646474 0.678146 0.628711 0.659376 -0.56213 -0.543374 -0.533643 -0.498353 0.0676726 0.0365104 0.132207 0.093725 0.178421 0.234054 0.177446 0.241273 0.215301 0.259564 0.236075 0.296022 -0.192996 -0.14639 -0.213612 -0.137791 0.646474 0.61116 0.662264 0.637762 0.713173 0.695433 0.673506 0.666244 0.265602 0.307522 0.258628 0.315934 -0.459688 -0.432655 -0.403669 -0.375424 0.271857 0.322311 0.331715 0.365574 0.608989 0.578675 0.572128 0.545442 -0.0178224 0.0606874 -0.0402575 0.0602404 -0.0874834 -0.0687391 -0.0178224 -0.00322631 0.61573 0.673506 0.614116 0.666244 0.492135 0.488355 0.547198 0.547195 -0.671842 -0.63507 -0.698193 -0.661453 -0.7125 -0.677698 -0.677066 -0.644328 0.226812 0.257148 0.275155 0.30703 0.65394 0.687157 0.624209 0.667157 0.668466 0.63529 0.685847 0.6652 0.245158 0.316176 0.27504 0.343286 -0.130784 -0.0924247 -0.183168 -0.125608 -0.697243 -0.723847 -0.677054 -0.687986 0.0546139 0.00733502 0.0948544 0.0528028 -0.120331 -0.0855918 -0.16308 -0.128544 0.29771 0.295103 0.263672 0.230398 -0.647405 -0.643546 -0.682149 -0.69076 -0.5535 -0.497636 -0.531596 -0.481558 -0.668188 -0.632538 -0.630494 -0.594709 -0.533643 -0.482122 -0.585815 -0.535531 0.117789 0.0789836 0.159728 0.113852 0.663462 0.653179 0.697092 0.685733 0.479967 0.433741 0.512803 0.469913 0.600232 0.585591 0.634007 0.639776 0.253823 0.313869 0.262354 0.319315 0.154808 0.210811 0.226812 0.257148 -0.290868 -0.257988 -0.374769 -0.323876 -0.257284 -0.313248 -0.268479 -0.309498 0.375551 0.388241 0.420565 0.439591 -0.39851 -0.342368 -0.415169 -0.341912 -0.258409 -0.265155 -0.201784 -0.22546 0.104244 0.168948 0.162996 0.228462 -0.531596 -0.504213 -0.578298 -0.549632 -0.702517 -0.687592 -0.730254 -0.73212 -0.433436 -0.490024 -0.40657 -0.484771 -0.377617 -0.453582 -0.376649 -0.440297 -0.31253 -0.253767 -0.342912 -0.282177 0.358302 0.391661 0.414507 0.440435 0.856578 0.84388 0.847758 0.835393 0.0447208 -0.015105 0.111395 0.0473306 -0.39362 -0.423741 -0.337633 -0.336633 0.740302 0.769909 0.754376 0.771923 0.104244 0.0447208 0.168948 0.111395 0.521632 0.472941 0.537213 0.510838 0.16373 0.10276 0.198511 0.132207 0.860765 0.861509 0.862168 0.862013 -0.583726 -0.597437 -0.516659 -0.548217 -0.0687391 -0.133015 -0.0532543 -0.128412 -0.374934 -0.315096 -0.376884 -0.311937 0.168948 0.235393 0.228462 0.285431 -0.594339 -0.614695 -0.544724 -0.56286 -0.843029 -0.83193 -0.829156 -0.819468 0.323677 0.270136 0.357291 0.290951 0.0778504 0.10369 0.0258201 0.0551095 0.550666 0.49825 0.563474 0.528874 -0.612967 -0.670099 -0.630149 -0.678 -0.830173 -0.833452 -0.846698 -0.847577 0.0579882 0.117044 0.0561921 0.112679 0.752719 0.760504 0.786832 0.793099 0.235393 0.294517 0.285431 0.338554 0.193614 0.162107 0.255576 0.23817 -0.199287 -0.224006 -0.253767 -0.282177 0.366809 0.314229 0.340006 0.30482 -0.491842 -0.516195 -0.452103 -0.472221 -0.559528 -0.578908 -0.49675 -0.528827 0.272863 0.205307 0.304097 0.251412 -0.253879 -0.312911 -0.224006 -0.282177 -0.390902 -0.439863 -0.38277 -0.411508 0.384919 0.447137 0.409378 0.46819 -0.376649 -0.440297 -0.376884 -0.436658 -0.851187 -0.850779 -0.859922 -0.857879 -0.457309 -0.403215 -0.49675 -0.432655 -0.129169 -0.0647821 -0.0942435 -0.0337886 -0.851187 -0.859922 -0.844954 -0.855123 -0.520949 -0.457311 -0.518604 -0.466118 -0.16074 -0.118542 -0.110696 -0.0402575 -0.199287 -0.139939 -0.224006 -0.166284 -0.843029 -0.829156 -0.845189 -0.832277 -0.621128 -0.566862 -0.610317 -0.566296 0.547925 0.584041 0.461943 0.535423 0.046585 0.101717 -0.00146524 0.0547147 -0.585815 -0.535531 -0.635284 -0.595443 -0.00283224 -0.0549159 -0.000512061 -0.0755291 -0.272766 -0.28745 -0.188749 -0.21151 -0.520949 -0.518604 -0.563442 -0.566862 -0.434284 -0.394722 -0.490509 -0.43651 -0.554809 -0.544226 -0.489837 -0.476621 -0.260849 -0.260932 -0.344303 -0.332955 -0.58795 -0.583158 -0.622592 -0.635327 -0.575809 -0.525587 -0.56873 -0.532349 -0.286506 -0.344576 -0.253879 -0.312911 -0.166461 -0.217194 -0.215645 -0.266463 -0.0765299 -0.0146376 -0.0720768 -0.00615798 -0.374934 -0.376884 -0.435299 -0.436658 -0.22136 -0.213903 -0.278613 -0.273199 -0.0569762 -0.00146524 -0.103172 -0.0544456 0.374785 0.424506 0.340765 0.391661 -0.129169 -0.0942435 -0.212068 -0.165132 -0.469322 -0.434284 -0.498712 -0.490509 0.584041 0.621293 0.535423 0.583794 -0.00146524 0.0547147 -0.0544456 -0.000512061 -0.522681 -0.464674 -0.511647 -0.453425 -0.79109 -0.774701 -0.787366 -0.763061 -0.536794 -0.522681 -0.58795 -0.583158 -0.0874834 -0.0178224 -0.118542 -0.0402575 -0.6008 -0.580412 -0.554809 -0.544226 0.103215 0.132143 0.150448 0.185704 -0.807621 -0.802296 -0.78833 -0.78217 -0.142256 -0.0780039 -0.0983625 -0.0439815 -0.575809 -0.56873 -0.624486 -0.615469 0.778621 0.761833 0.801865 0.784783 -0.0780039 -0.0549159 -0.0439815 0.000844401 -0.374505 -0.348737 -0.431984 -0.402822 -0.260932 -0.252052 -0.332955 -0.323299 -0.461176 -0.511567 -0.414916 -0.466954 -0.722976 -0.69292 -0.706593 -0.677297 -0.850779 -0.843029 -0.857879 -0.845189 -0.453425 -0.391284 -0.446427 -0.38293 0.186168 0.123931 0.18448 0.113578 0.764357 0.761423 0.793601 0.789176 0.789176 0.778621 0.812859 0.801865 -0.166461 -0.215645 -0.109744 -0.158689 0.639383 0.66943 0.653179 0.685733 0.304097 0.251412 0.340765 0.28949 0.046585 0.0897077 0.101717 0.14359 0.0197494 0.0777913 -0.013523 0.065821 -0.746679 -0.733913 -0.703837 -0.699862 -0.6008 -0.6257 -0.580412 -0.588434 -0.833452 -0.844954 -0.847577 -0.855123 -0.757741 -0.730951 -0.727969 -0.699717 -0.375551 -0.434559 -0.395455 -0.448457 0.274922 0.311281 0.324678 0.359115 -0.431091 -0.440206 -0.489837 -0.496585 0.760504 0.764357 0.793099 0.793601 0.359115 0.403465 0.390923 0.431029 -0.103172 -0.154362 -0.138976 -0.184237 0.14077 0.179472 0.192012 0.230398 0.101717 0.14359 0.156466 0.196996 0.274922 0.324678 0.244549 0.295854 0.770384 0.804407 0.759553 0.791637 -0.2052 -0.262479 -0.16074 -0.203689 -0.286506 -0.222664 -0.317918 -0.273138 -0.257284 -0.208355 -0.23815 -0.182829 -0.361429 -0.298494 -0.335566 -0.275439 -0.320159 -0.280089 -0.299178 -0.239541 -0.438072 -0.446427 -0.375913 -0.38293 -0.144644 -0.207759 -0.213903 -0.273199 -0.414203 -0.395455 -0.471448 -0.448457 -0.377617 -0.414203 -0.453582 -0.471448 -0.447507 -0.504054 -0.440206 -0.496585 0.481343 0.534787 0.462202 0.513581 -0.335566 -0.275439 -0.313632 -0.256587 -0.374505 -0.331156 -0.348737 -0.301214 -0.860164 -0.857879 -0.846894 -0.845189 0.215301 0.148107 0.259564 0.187583 -0.382768 -0.328591 -0.405136 -0.351864 -0.730951 -0.69957 -0.699717 -0.668188 -0.125686 -0.108737 -0.191739 -0.183519 -0.375913 -0.311378 -0.366716 -0.306356 0.453182 0.432572 0.507997 0.495923 0.375709 0.390923 0.440921 0.431029 -0.342368 -0.338402 -0.275526 -0.299178 -0.405136 -0.351864 -0.419546 -0.363688 0.217203 0.158032 0.244549 0.188716 0.215301 0.236075 0.148107 0.158665 -0.0569762 -0.103172 -0.126053 -0.138976 0.0978159 0.132043 0.158032 0.188716 -0.846698 -0.847577 -0.859236 -0.855123 -0.35108 -0.305535 -0.380199 -0.344303 0.186168 0.250973 0.182579 0.232302 -0.699717 -0.668188 -0.660898 -0.630494 -0.343366 -0.317918 -0.270492 -0.273138 0.208766 0.156466 0.248227 0.196996 0.0897077 0.122557 0.14359 0.177296 -0.516659 -0.548217 -0.455428 -0.501968 0.489804 0.500005 0.541567 0.568317 0.217203 0.244549 0.273149 0.295854 -0.213631 -0.265218 -0.250855 -0.294895 -0.23815 -0.182829 -0.211186 -0.15373 -0.69957 -0.663712 -0.668188 -0.632538 0.236075 0.266542 0.158665 0.210264 -0.657063 -0.643546 -0.626608 -0.603374 -0.109744 -0.158689 -0.0512303 -0.0983625 -0.616504 -0.648996 -0.584454 -0.617001 0.453182 0.507997 0.475295 0.514284 -0.431792 -0.486098 -0.419546 -0.47388 -0.779037 -0.757741 -0.751444 -0.727969 -0.657063 -0.626608 -0.687238 -0.668971 0.536669 0.488769 0.561382 0.513581 -0.723486 -0.686945 -0.69957 -0.663712 0.023514 0.0796923 -0.0241872 0.0294434 -0.543398 -0.609159 -0.523571 -0.594511 0.830354 0.837819 0.847758 0.854367 -0.16074 -0.203689 -0.118542 -0.188749 0.0690021 0.0444931 0.00955626 -0.0164622 -0.647405 -0.609159 -0.643546 -0.592831 -0.723486 -0.74077 -0.686945 -0.703018 0.0225966 0.0444931 0.0823615 0.105667 0.266542 0.294057 0.210264 0.22719 0.0404126 0.0166554 0.119111 0.087386 0.47412 0.489804 0.520723 0.541567 -0.0892638 -0.154981 -0.078354 -0.137394 -0.0616015 -0.109744 -0.00470038 -0.0512303 -0.0939866 -0.0749343 -0.0355154 -0.0164622 -0.523571 -0.4573 -0.471057 -0.421736 -0.686945 -0.703018 -0.645661 -0.660681 -0.062922 -0.126053 -0.10801 -0.166662 -0.36325 -0.343366 -0.30577 -0.270492 0.500005 0.498439 0.568317 0.55483 -0.00196363 0.0225966 0.0583536 0.0823615 -0.643546 -0.592831 -0.603374 -0.579681 0.372706 0.436854 0.402301 0.463204 -0.713356 -0.670245 -0.703018 -0.660681 -0.543398 -0.523571 -0.498857 -0.471057 -0.721783 -0.679321 -0.713356 -0.670245 -0.148174 -0.131502 -0.0939866 -0.0749343 -0.758307 -0.767933 -0.727083 -0.750126 -0.0874834 -0.118542 -0.134764 -0.188749 0.687157 0.719923 0.667157 0.70722 0.564925 0.581935 0.594276 0.6213 -0.833452 -0.814991 -0.844954 -0.827863 -0.595712 -0.536829 -0.583146 -0.55016 -0.679321 -0.633421 -0.670245 -0.624486 0.525737 0.536669 0.564925 0.581935 0.118174 0.0583536 0.139221 0.0823615 -0.752903 -0.713356 -0.74077 -0.703018 0.476767 0.533673 0.519086 0.574235 -0.153668 -0.198136 -0.148174 -0.20455 -0.498857 -0.471057 -0.488921 -0.438276 -0.766269 -0.734688 -0.765735 -0.736588 -0.733414 -0.757977 -0.775341 -0.789771 -0.486098 -0.503461 -0.536829 -0.55016 0.307091 0.372706 0.339588 0.402301 0.0783395 0.0375611 0.130913 0.0885893 -0.336633 -0.348433 -0.272022 -0.278448 0.402301 0.463204 0.422474 0.480629 -0.198136 -0.272022 -0.20455 -0.278448 0.53023 0.540273 0.574425 0.590177 -0.486793 -0.511992 -0.445902 -0.450133 -0.511992 -0.546399 -0.450133 -0.506427 -0.734839 -0.758307 -0.712315 -0.727083 -0.734839 -0.712315 -0.691406 -0.670099 0.568317 0.55483 0.619913 0.605129 0.118174 0.139221 0.177838 0.193272 0.574085 0.545512 0.607206 0.564551 -0.73212 -0.733414 -0.764275 -0.775341 -0.0573816 -0.0286062 0.00126334 0.0319634 -0.477422 -0.510086 -0.528462 -0.557455 -0.00196363 0.0583536 -0.0286062 0.0319634 0.0783395 0.130913 0.125099 0.178191 0.239287 0.177838 0.25002 0.193272 0.682934 0.699442 0.65394 0.687157 0.574085 0.575365 0.506022 0.517069 0.649891 0.609776 0.613981 0.593702 0.619913 0.605129 0.647605 0.648297 -0.374002 -0.41627 -0.356917 -0.40725 0.750109 0.722924 0.782464 0.759307 0.607206 0.623879 0.652393 0.664197 0.722924 0.706043 0.759307 0.743792 0.17551 0.22925 0.130913 0.178191 -0.597437 -0.645077 -0.613917 -0.65694 0.0872674 0.122721 0.0174603 0.0521096 -0.595712 -0.583146 -0.64165 -0.611377 -0.0311297 -0.0118172 0.0431813 0.0625906 0.834141 0.84781 0.828828 0.844475 0.517069 0.531444 0.45321 0.468505 -0.0421777 0.0300458 -0.078354 0.00185404 0.838079 0.854761 0.837819 0.854367 0.81298 0.794768 0.805645 0.783308 0.749139 0.776838 0.748876 0.787768 0.84781 0.857148 0.844475 0.854773 0.14781 0.206548 0.182043 0.244392 0.0300458 0.10276 0.00185404 0.0715021 0.122721 0.117072 0.0521096 0.0720878 0.0123843 0.080727 -0.00517009 0.0796597 -0.757977 -0.776072 -0.789771 -0.804628 0.244392 0.305682 0.272557 0.338465 0.00332318 0.0551095 0.0375611 0.0885893 0.746637 0.762837 0.749139 0.776838 0.104905 0.0475036 0.117072 0.0720878 0.844475 0.854773 0.842608 0.854761 -0.449087 -0.477422 -0.503461 -0.528462 0.0123843 -0.00517009 -0.0533362 -0.0687425 -0.0934246 -0.0216797 -0.0775956 -0.00728799 0.171105 0.231644 0.175851 0.245715 -0.292301 -0.255226 -0.247124 -0.208326 0.825589 0.811918 0.836783 0.823914 0.272557 0.338465 0.293743 0.362394 0.17231 0.165705 0.104905 0.0884654 -0.0775956 -0.00728799 -0.0534892 0.0166554 0.165556 0.0715379 0.165705 0.0884654 -0.0428813 -0.0534892 0.0404126 0.0166554 -0.131753 -0.0533362 -0.129358 -0.0687425 0.294057 0.35987 0.340006 0.391539 -0.814991 -0.789771 -0.827863 -0.804628 0.366809 0.340006 0.416969 0.391539 0.205107 0.224025 0.142389 0.15279 0.699442 0.734157 0.687157 0.719923 0.171105 0.164003 0.231644 0.217233 0.383642 0.434343 0.373113 0.461943 0.521632 0.574581 0.495923 0.570248 0.682934 0.712583 0.699442 0.734157 0.796027 0.816821 0.811918 0.823914 0.719923 0.751145 0.70722 0.728696 0.68556 0.70674 0.712583 0.748876 0.786832 0.793099 0.816821 0.819744 -0.331241 -0.292301 -0.29565 -0.247124 0.080727 0.15279 0.0796597 0.170921 -0.751444 -0.727969 -0.723847 -0.687986 0.148107 0.110429 0.187583 0.129219 -0.131753 -0.200045 -0.17469 -0.220447 -0.457858 -0.403332 -0.42457 -0.393114 0.798779 0.814553 0.78816 0.811168 0.305682 0.373113 0.338465 0.40398 0.176924 0.192227 0.109721 0.133035 0.521632 0.495923 0.472941 0.440435 0.830354 0.847758 0.817537 0.835393 0.0724628 0.0873882 0.129219 0.137633 0.751145 0.783833 0.728696 0.778246 0.286894 0.320339 0.337017 0.356844 0.192227 0.20373 0.133035 0.150295 0.244275 0.192012 0.295103 0.230398 0.732005 0.728696 0.770384 0.778246 0.489804 0.434734 0.500005 0.440808 0.0130131 0.0404126 0.0724628 0.0873882 0.811991 0.81298 0.827784 0.836188 -0.0782037 -0.0488616 -0.130262 -0.0996011 0.115236 0.0777913 0.144833 0.110941 0.538873 0.554033 0.498522 0.504844 0.66943 0.712984 0.685733 0.726783 0.830354 0.817537 0.804407 0.791637 0.76026 0.775714 0.782222 0.798715 0.439591 0.462202 0.488769 0.513581 0.292634 0.244275 0.3385 0.295103 0.292634 0.3385 0.339063 0.364477 0.846396 0.852719 0.84781 0.857148 0.770728 0.78816 0.792822 0.811168 0.374785 0.408083 0.424506 0.454603 -0.815727 -0.801121 -0.794521 -0.779037 0.448422 0.473823 0.408083 0.454603 -0.646928 -0.595712 -0.672589 -0.64165 -0.621128 -0.610317 -0.65806 -0.659425 -0.249907 -0.199779 -0.193449 -0.144577 0.217386 0.263672 0.179472 0.230398 0.364496 0.361453 0.302227 0.297755 0.293743 0.362394 0.316176 0.384919 -0.249907 -0.193449 -0.298678 -0.241919 -0.260158 -0.322175 -0.207759 -0.273199 0.817537 0.798727 0.791637 0.773925 -0.597437 -0.613917 -0.548217 -0.572574 0.678146 0.692104 0.703995 0.720399 -0.0421777 -0.078354 -0.0733673 -0.12421 -0.331241 -0.380018 -0.353594 -0.39317 0.565012 0.563474 0.517083 0.528874 0.775714 0.7865 0.798715 0.809763 -0.00608372 0.0215253 -0.0647821 -0.0337886 -0.594511 -0.644648 -0.585521 -0.633868 -0.849233 -0.846698 -0.85858 -0.859236 -0.0765299 -0.110696 -0.0146376 -0.0402575 -0.438012 -0.455428 -0.458422 -0.501968 0.448422 0.408083 0.389823 0.357291 -0.108908 -0.0782037 -0.158997 -0.130262 0.662064 0.684125 0.706043 0.719289 0.0796597 0.136887 0.023514 0.0796923 0.670729 0.647605 0.687227 0.648297 -0.51807 -0.453582 -0.531117 -0.471448 0.122557 0.14299 0.177296 0.199085 0.16373 0.132143 0.10276 0.0715021 0.695433 0.704462 0.666244 0.668539 -0.279378 -0.278613 -0.319666 -0.336374 0.774556 0.798727 0.785007 0.817905 0.239287 0.302227 0.221161 0.297755 0.0268394 -0.0116495 0.0783395 0.0375611 -0.679406 -0.627889 -0.67592 -0.644061 -0.134764 -0.188749 -0.133015 -0.21151 0.20373 0.201493 0.150295 0.160974 -0.741461 -0.709606 -0.721761 -0.679406 0.782222 0.799227 0.762837 0.776838 0.115236 0.113657 0.0777913 0.065821 0.175851 0.245715 0.188742 0.232533 -0.208355 -0.158997 -0.182829 -0.130262 -0.757204 -0.727648 -0.741461 -0.709606 0.652393 0.664197 0.702843 0.706397 0.544462 0.49502 0.531444 0.468505 0.596337 0.634272 0.644017 0.666016 -0.628918 -0.657186 -0.6008 -0.6257 -0.687592 -0.696567 -0.73212 -0.733414 -0.765735 -0.736588 -0.757204 -0.727648 0.224025 0.293743 0.245158 0.316176 -0.794521 -0.779037 -0.76579 -0.751444 0.798779 0.769909 0.806746 0.781807 -0.048465 -0.013523 -0.0079282 0.065821 -0.320159 -0.333032 -0.280089 -0.274684 -0.667421 -0.64954 -0.648996 -0.617001 0.257034 0.299565 0.217386 0.263672 -0.760644 -0.745827 -0.733913 -0.719455 0.096392 0.118026 0.0473627 