# vtk DataFile Version 3.0
#This file was generated by the deal.II library on 2025/2/17 at 12:21:38
ASCII
DATASET UNSTRUCTURED_GRID

POINTS 616 double
-0.524386 -0.831939 0.181373
-0.751883 -0.628997 0.197572
-0.589445 -0.805629 -0.0592915
-0.794453 -0.606202 -0.0369325
0.29261 -0.821198 0.489912
0.177511 -0.937486 0.299348
0.516132 -0.786002 0.340306
0.381845 -0.897038 0.222522
0.375862 0.785557 0.491557
0.556789 0.777012 0.293665
0.27115 0.871287 0.409067
0.354904 0.8961 0.266548
0.587785 -1.43966e-16 -0.809017
0.621258 0.29961 -0.724067
0.809017 -1.98152e-16 -0.587785
0.85796 0.269817 -0.437153
0.175449 0.951544 0.252551
0.354904 0.8961 0.266548
0.108009 0.993491 0.0361984
0.421846 0.906634 0.00774992
0.587785 -1.43966e-16 -0.809017
0.309017 -7.56873e-17 -0.951057
0.621258 0.29961 -0.724067
0.356927 0.280554 -0.891007
-0.358508 -0.117347 -0.926122
-0.262196 0.324612 -0.90878
6.12323e-17 -1.49976e-32 -1
0.149818 0.304734 -0.94058
0.108009 0.993491 0.0361984
0.421846 0.906634 0.00774992
0.148381 0.96411 -0.220169
0.377524 0.85882 -0.346272
0.148381 0.96411 -0.220169
0.377524 0.85882 -0.346272
-0.0586459 0.949858 -0.307134
0.0605394 0.839536 -0.539921
-0.262196 0.324612 -0.90878
-0.132882 0.611345 -0.780128
0.149818 0.304734 -0.94058
0.135854 0.638047 -0.757918
-0.35307 -0.70337 0.616938
-0.0129096 -0.811559 0.584128
-0.264075 -0.524694 0.809297
0.0959855 -0.616523 0.781464
-0.35307 -0.70337 0.616938
-0.435188 -0.798279 0.416368
-0.0129096 -0.811559 0.584128
-0.126456 -0.916225 0.380185
-0.391597 0.908228 -0.14756
-0.15205 0.984004 -0.0928254
-0.329579 0.870282 -0.366043
-0.0586459 0.949858 -0.307134
0.437153 0.273433 0.856815
0.680881 0.269817 0.680881
0.265607 0.59353 0.75972
0.543144 0.587909 0.599465
-0.0422194 -0.988532 -0.144991
-0.138156 -0.925636 -0.352294
0.170226 -0.96482 -0.200365
0.124454 -0.920342 -0.370786
-0.802259 0.565732 -0.1906
-0.627352 0.760796 -0.166189
-0.741226 0.546843 -0.38929
-0.564995 0.732456 -0.379854
-0.819689 -0.261601 0.509584
-0.717788 0.0343899 0.695412
-0.938151 -0.0611472 0.340784
-0.858263 0.24118 0.453008
0.0932138 0.775279 0.624703
0.265607 0.59353 0.75972
0.375862 0.785557 0.491557
0.543144 0.587909 0.599465
0.356927 0.280554 -0.891007
0.149818 0.304734 -0.94058
0.437737 0.607436 -0.662879
0.135854 0.638047 -0.757918
0.437737 0.607436 -0.662879
0.135854 0.638047 -0.757918
0.377524 0.85882 -0.346272
0.0605394 0.839536 -0.539921
-0.665529 0.538248 0.517069
-0.367371 0.779061 0.508038
-0.704795 0.64424 0.297015
-0.433554 0.85236 0.292427
-0.440927 0.894599 0.072632
-0.239521 0.968844 0.0630216
-0.391597 0.908228 -0.14756
-0.15205 0.984004 -0.0928254
0.455723 -0.280406 -0.844801
0.139666 -0.263049 -0.95462
0.587785 -1.43966e-16 -0.809017
0.309017 -7.56873e-17 -0.951057
-0.95059 0.299622 -0.0812776
-0.888169 0.406557 -0.214165
-0.966833 0.108362 -0.231283
-0.877591 0.321718 -0.355432
-0.648818 0.491128 -0.58123
-0.510818 0.670914 -0.537531
-0.498254 0.424483 -0.756014
-0.297479 0.72596 -0.620072
0.539432 -0.526201 -0.657363
0.257486 -0.594946 -0.761407
0.455723 -0.280406 -0.844801
0.139666 -0.263049 -0.95462
0.257486 -0.594946 -0.761407
0.332929 -0.779121 -0.531159
-0.0392122 -0.62929 -0.776181
0.0336403 -0.819308 -0.572366
0.451463 -0.276483 0.848374
0.701033 -0.264209 0.66238
0.587785 -1.43966e-16 0.809017
0.809017 -1.98152e-16 0.587785
-0.918903 -0.348082 0.185621
-0.994693 -0.0969958 -0.0343202
-0.904564 -0.425638 -0.0244142
-0.935326 -0.300704 -0.186392
-0.358508 -0.117347 -0.926122
-0.606189 0.0578074 -0.793217
-0.262196 0.324612 -0.90878
-0.498254 0.424483 -0.756014
0.85271 -0.245935 0.46087
0.950358 -0.269666 0.155239
0.951057 -2.32942e-16 0.309017
1 -2.44929e-16 -2.44929e-16
0.587785 -1.43966e-16 0.809017
0.809017 -1.98152e-16 0.587785
0.437153 0.273433 0.856815
0.680881 0.269817 0.680881
-0.554687 -0.629212 -0.544439
-0.774605 -0.403755 -0.486794
-0.396941 -0.593185 -0.700407
-0.680496 -0.293771 -0.671286
-0.611579 -0.732338 -0.299419
-0.808421 -0.522447 -0.271119
-0.554687 -0.629212 -0.544439
-0.774605 -0.403755 -0.486794
-0.611579 -0.732338 -0.299419
-0.554687 -0.629212 -0.544439
-0.379945 -0.867846 -0.320133
-0.399728 -0.781472 -0.479081
-0.688628 -0.601747 0.404589
-0.817788 -0.420216 0.393245
-0.751883 -0.628997 0.197572
-0.918903 -0.348082 0.185621
-0.0129096 -0.811559 0.584128
-0.126456 -0.916225 0.380185
0.29261 -0.821198 0.489912
0.177511 -0.937486 0.299348
-0.126456 -0.916225 0.380185
-0.237978 -0.960021 0.147399
0.177511 -0.937486 0.299348
0.0708212 -0.994157 0.0814587
0.177511 -0.937486 0.299348
0.0708212 -0.994157 0.0814587
0.381845 -0.897038 0.222522
0.424375 -0.904945 -0.0313219
0.516132 -0.786002 0.340306
0.381845 -0.897038 0.222522
0.63012 -0.767905 0.115197
0.424375 -0.904945 -0.0313219
0.660316 0.750301 0.0320937
0.684772 0.680645 -0.260404
0.421846 0.906634 0.00774992
0.377524 0.85882 -0.346272
0.660316 0.750301 0.0320937
0.841628 0.532293 0.0912498
0.684772 0.680645 -0.260404
0.85339 0.48633 -0.18764
0.790943 -0.54594 0.276329
0.845651 -0.533737 -0.00051998
0.85271 -0.245935 0.46087
0.950358 -0.269666 0.155239
0.950358 -0.269666 0.155239
0.950998 -0.267485 -0.155095
1 -2.44929e-16 -2.44929e-16
0.951057 -2.32942e-16 -0.309017
-0.680496 -0.293771 -0.671286
-0.816223 0.101088 -0.568824
-0.577032 -0.228532 -0.784096
-0.606189 0.0578074 -0.793217
-0.549842 0.425274 0.718899
-0.249841 0.682127 0.687228
-0.665529 0.538248 0.517069
-0.367371 0.779061 0.508038
-0.264075 -0.524694 0.809297
0.0959855 -0.616523 0.781464
-0.158791 -0.226969 0.96087
0.150633 -0.269817 0.951057
0.845651 -0.533737 -0.00051998
0.818631 -0.499155 -0.284055
0.950358 -0.269666 0.155239
0.950998 -0.267485 -0.155095
0.676078 0.528114 -0.513823
0.437737 0.607436 -0.662879
0.684772 0.680645 -0.260404
0.377524 0.85882 -0.346272
-0.324271 -0.94107 -0.0961007
-0.379945 -0.867846 -0.320133
-0.0422194 -0.988532 -0.144991
-0.138156 -0.925636 -0.352294
0.809017 -1.98152e-16 0.587785
0.951057 -2.32942e-16 0.309017
0.680881 0.269817 0.680881
0.85796 0.269817 0.437153
-0.808421 -0.522447 -0.271119
-0.935326 -0.300704 -0.186392
-0.774605 -0.403755 -0.486794
-0.917137 -0.130556 -0.376583
0.85796 0.269817 0.437153
0.956243 0.26052 0.133151
0.739104 0.56718 0.363361
0.841628 0.532293 0.0912498
0.556789 0.777012 0.293665
0.660316 0.750301 0.0320937
0.354904 0.8961 0.266548
0.421846 0.906634 0.00774992
-0.396941 -0.593185 -0.700407
-0.309855 -0.365478 -0.877733
-0.0392122 -0.62929 -0.776181
-0.0502278 -0.289268 -0.955929
-0.262196 0.324612 -0.90878
-0.498254 0.424483 -0.756014
-0.132882 0.611345 -0.780128
-0.297479 0.72596 -0.620072
-0.138156 -0.925636 -0.352294
-0.236397 -0.812795 -0.532429
0.124454 -0.920342 -0.370786
0.0336403 -0.819308 -0.572366
-0.396941 -0.593185 -0.700407
-0.0392122 -0.62929 -0.776181
-0.236397 -0.812795 -0.532429
0.0336403 -0.819308 -0.572366
0.0905862 0.190553 0.977488
0.437153 0.273433 0.856815
-0.0816393 0.525162 0.847077
0.265607 0.59353 0.75972
-0.994693 -0.0969958 -0.0343202
-0.966833 0.108362 -0.231283
-0.935326 -0.300704 -0.186392
-0.917137 -0.130556 -0.376583
0.951057 -2.32942e-16 0.309017
1 -2.44929e-16 -2.44929e-16
0.85796 0.269817 0.437153
0.956243 0.26052 0.133151
0.621258 0.29961 -0.724067
0.356927 0.280554 -0.891007
0.676078 0.528114 -0.513823
0.437737 0.607436 -0.662879
-0.158791 -0.226969 0.96087
0.150633 -0.269817 0.951057
6.12323e-17 -1.49976e-32 1
0.309017 -7.56873e-17 0.951057
0.0959855 -0.616523 0.781464
0.412536 -0.611637 0.675066
0.150633 -0.269817 0.951057
0.451463 -0.276483 0.848374
0.150633 -0.269817 0.951057
0.451463 -0.276483 0.848374
0.309017 -7.56873e-17 0.951057
0.587785 -1.43966e-16 0.809017
0.647669 -0.746559 -0.15223
0.60776 -0.675244 -0.417939
0.845651 -0.533737 -0.00051998
0.818631 -0.499155 -0.284055
-0.983912 0.131786 0.120626
-0.95059 0.299622 -0.0812776
-0.994693 -0.0969958 -0.0343202
-0.966833 0.108362 -0.231283
-0.938151 -0.0611472 0.340784
-0.983912 0.131786 0.120626
-0.918903 -0.348082 0.185621
-0.994693 -0.0969958 -0.0343202
0.63012 -0.767905 0.115197
0.647669 -0.746559 -0.15223
0.790943 -0.54594 0.276329
0.845651 -0.533737 -0.00051998
-0.682974 0.72807 0.0588321
-0.440927 0.894599 0.072632
-0.627352 0.760796 -0.166189
-0.391597 0.908228 -0.14756
0.0708212 -0.994157 0.0814587
-0.0422194 -0.988532 -0.144991
0.424375 -0.904945 -0.0313219
0.170226 -0.96482 -0.200365
0.809017 -1.98152e-16 -0.587785
0.85796 0.269817 -0.437153
0.951057 -2.32942e-16 -0.309017
0.952974 0.256423 -0.161517
-0.35307 -0.70337 0.616938
-0.6265 -0.49419 0.602722
-0.435188 -0.798279 0.416368
-0.688628 -0.601747 0.404589
0.63012 -0.767905 0.115197
0.424375 -0.904945 -0.0313219
0.647669 -0.746559 -0.15223
0.391666 -0.876348 -0.28038
0.680881 0.269817 0.680881
0.85796 0.269817 0.437153
0.543144 0.587909 0.599465
0.739104 0.56718 0.363361
-0.132882 0.611345 -0.780128
-0.297479 0.72596 -0.620072
0.135854 0.638047 -0.757918
0.0605394 0.839536 -0.539921
-0.0129096 -0.811559 0.584128
0.29261 -0.821198 0.489912
0.0959855 -0.616523 0.781464
0.412536 -0.611637 0.675066
-0.751883 -0.628997 0.197572
-0.918903 -0.348082 0.185621
-0.794453 -0.606202 -0.0369325
-0.904564 -0.425638 -0.0244142
-0.589445 -0.805629 -0.0592915
-0.794453 -0.606202 -0.0369325
-0.611579 -0.732338 -0.299419
-0.808421 -0.522447 -0.271119
-0.161192 0.96469 0.208305
0.108009 0.993491 0.0361984
-0.239521 0.968844 0.0630216
-0.15205 0.984004 -0.0928254
0.108009 0.993491 0.0361984
0.148381 0.96411 -0.220169
-0.15205 0.984004 -0.0928254
-0.0586459 0.949858 -0.307134
-0.794453 -0.606202 -0.0369325
-0.904564 -0.425638 -0.0244142
-0.808421 -0.522447 -0.271119
-0.935326 -0.300704 -0.186392
-0.819689 -0.261601 0.509584
-0.938151 -0.0611472 0.340784
-0.817788 -0.420216 0.393245
-0.918903 -0.348082 0.185621
-0.704795 0.64424 0.297015
-0.433554 0.85236 0.292427
-0.682974 0.72807 0.0588321
-0.440927 0.894599 0.072632
0.956243 0.26052 0.133151
0.952974 0.256423 -0.161517
0.841628 0.532293 0.0912498
0.85339 0.48633 -0.18764
0.539432 -0.526201 -0.657363
0.60776 -0.675244 -0.417939
0.257486 -0.594946 -0.761407
[...]
POINT_DATA 616
SCALARS phi double 1
LOOKUP_TABLE default
-0.564677 -0.56987 -0.699957 -0.693206 -0.0176481 -0.222455 0.0356203 -0.142298 0.79358 0.780681 0.746045 0.730138 -0.10557 0.0937705 0.106163 0.3281 0.662265 0.730138 0.54646 0.637639 -0.10557 -0.306273 0.0937705 -0.118928 -0.664252 -0.402141 -0.47381 -0.231914 0.54646 0.637639 0.427761 0.422547 0.427761 0.422547 0.278623 0.171241 -0.402141 -0.144832 -0.231914 0.00739949 -0.209274 -0.114322 0.0105377 0.124947 -0.209274 -0.392017 -0.114322 -0.317884 0.177049 0.356082 0.0837847 0.278623 0.743536 0.77676 0.768394 0.824855 -0.566088 -0.682685 -0.476004 -0.561502 -0.204793 -0.0151597 -0.282813 -0.101774 -0.270258 0.00396027 -0.314128 -0.077257 0.712252 0.768394 0.79358 0.824855 -0.118928 -0.231914 0.181136 0.00739949 0.181136 0.00739949 0.422547 0.171241 0.185722 0.438798 0.113598 0.341036 0.25224 0.382066 0.177049 0.356082 -0.321745 -0.513618 -0.10557 -0.306273 -0.353051 -0.336338 -0.525218 -0.440781 -0.357923 -0.182656 -0.396459 -0.0915309 -0.309936 -0.523947 -0.321745 -0.513618 -0.523947 -0.468332 -0.689625 -0.651967 0.48492 0.523294 0.66529 0.666397 -0.519227 -0.540007 -0.652468 -0.684893 -0.664252 -0.635427 -0.402141 -0.396459 0.50936 0.399402 0.600181 0.476402 0.66529 0.666397 0.743536 0.77676 -0.830192 -0.798266 -0.808743 -0.78602 -0.791231 -0.771424 -0.830192 -0.798266 -0.791231 -0.830192 -0.756133 -0.800872 -0.425907 -0.406257 -0.56987 -0.519227 -0.114322 -0.317884 -0.0176481 -0.222455 -0.317884 -0.504497 -0.222455 -0.404294 -0.222455 -0.404294 -0.142298 -0.246332 0.0356203 -0.142298 -0.00998474 -0.246332 0.689799 0.527107 0.637639 0.422547 0.689799 0.701532 0.527107 0.554032 0.250333 0.149062 0.50936 0.399402 0.399402 0.254175 0.476402 0.305645 -0.78602 -0.612378 -0.758142 -0.635427 0.281221 0.53266 0.185722 0.438798 0.0105377 0.124947 0.270728 0.393214 0.149062 0.0168028 0.399402 0.254175 0.328407 0.181136 0.527107 0.422547 -0.655003 -0.756133 -0.566088 -0.682685 0.666397 0.600181 0.77676 0.746262 -0.771424 -0.684893 -0.798266 -0.683016 0.746262 0.645405 0.797745 0.701532 0.780681 0.689799 0.730138 0.637639 -0.808743 -0.740753 -0.689625 -0.618642 -0.402141 -0.396459 -0.144832 -0.0915309 -0.682685 -0.760811 -0.561502 -0.651967 -0.808743 -0.689625 -0.760811 -0.651967 0.598511 0.743536 0.612515 0.768394 -0.540007 -0.525218 -0.684893 -0.683016 0.600181 0.476402 0.746262 0.645405 0.0937705 -0.118928 0.328407 0.181136 0.270728 0.393214 0.478229 0.600298 0.124947 0.227871 0.393214 0.48492 0.393214 0.48492 0.600298 0.66529 -0.120312 -0.233477 0.149062 0.0168028 -0.350761 -0.353051 -0.540007 -0.525218 -0.314128 -0.350761 -0.519227 -0.540007 -0.00998474 -0.120312 0.250333 0.149062 0.0505988 0.25224 -0.0151597 0.177049 -0.404294 -0.566088 -0.246332 -0.476004 0.106163 0.3281 0.305645 0.501812 -0.209274 -0.246376 -0.392017 -0.425907 -0.00998474 -0.246332 -0.120312 -0.367133 0.77676 0.746262 0.824855 0.797745 -0.144832 -0.0915309 0.00739949 0.171241 -0.114322 -0.0176481 0.124947 0.227871 -0.56987 -0.519227 -0.693206 -0.652468 -0.699957 -0.693206 -0.791231 -0.771424 0.48763 0.54646 0.382066 0.356082 0.54646 0.427761 0.356082 0.278623 -0.693206 -0.652468 -0.771424 -0.684893 -0.270258 -0.314128 -0.406257 -0.519227 0.113598 0.341036 0.0505988 0.25224 0.645405 0.501812 0.701532 0.554032 -0.309936 -0.233477 -0.523947 -0.468332 0.0937705 0.328407 0.3281 0.412668 -0.126349 0.113598 -0.159607 0.0505988 -0.350761 -0.126349 -0.353051 -0.159607 0.780681 0.797745 0.689799 0.701532 0.281221 0.383922 0.53266 0.612515 -0.367133 -0.561502 -0.468332 -0.651967 -0.504497 -0.655003 -0.404294 -0.566088 0.53266 0.712252 0.438798 0.646808 -0.612378 -0.357923 -0.635427 -0.396459 0.0911751 0.106163 0.254175 0.305645 0.523294 0.50936 0.666397 0.600181 -0.564677 -0.699957 -0.504497 -0.655003 0.476402 0.305645 0.645405 0.501812 -0.392017 -0.564677 -0.317884 -0.504497 -0.336338 -0.204793 -0.440781 -0.282813 -0.321745 -0.10557 -0.105417 0.106163 -0.282813 -0.101774 -0.357923 -0.182656 -0.309936 -0.10335 -0.233477 0.0168028 -0.209274 0.0105377 -0.246376 -0.0341396 -0.309936 -0.321745 -0.10335 -0.105417 0.600298 0.66529 0.598511 0.743536 -0.699957 -0.791231 -0.655003 -0.756133 -0.314128 -0.077257 -0.350761 -0.126349 0.712252 0.79358 0.646808 0.746045 0.646808 0.746045 0.662265 0.730138 0.0356203 -0.00998474 0.274741 0.250333 0.438798 0.646808 0.341036 0.48763 0.53266 0.612515 0.712252 0.768394 0.00396027 0.281221 -0.077257 0.185722 -0.440781 -0.282813 -0.612378 -0.357923 -0.159607 0.0505988 -0.204793 -0.0151597 0.646808 0.662265 0.48763 0.54646 0.0837847 0.278623 -0.0915309 0.171241 0.270728 0.478229 0.21519 0.414473 -0.0176481 0.0356203 0.227871 0.274741 -0.120312 -0.367133 -0.233477 -0.468332 -0.513618 -0.618642 -0.306273 -0.47381 -0.353051 -0.159607 -0.336338 -0.204793 -0.525218 -0.440781 -0.683016 -0.612378 0.341036 0.48763 0.25224 0.382066 -0.077257 0.185722 -0.126349 0.113598 0.328407 0.527107 0.412668 0.554032 -0.10335 -0.105417 0.0911751 0.106163 0.3281 0.412668 0.501812 0.554032 -0.246376 -0.270258 -0.425907 -0.406257 0.414473 0.598511 0.383922 0.612515 -0.0341396 0.21519 0.00396027 0.203651 -0.306273 -0.47381 -0.118928 -0.231914 0.00396027 0.203651 0.281221 0.383922 0.0105377 0.270728 -0.0341396 0.21519 -0.246332 -0.476004 -0.367133 -0.561502 -0.798266 -0.683016 -0.78602 -0.612378 -0.10335 0.0911751 0.0168028 0.254175 -0.740753 -0.664252 -0.618642 -0.47381 -0.740753 -0.758142 -0.664252 -0.635427 -0.523947 -0.689625 -0.513618 -0.618642 0.478229 0.600298 0.414473 0.598511 0.79358 0.824855 0.780681 0.797745 -0.756133 -0.800872 -0.682685 -0.760811 -0.0151597 0.177049 -0.101774 0.0837847 0.274741 0.250333 0.523294 0.50936 -0.830192 -0.808743 -0.800872 -0.760811 -0.392017 -0.425907 -0.564677 -0.56987 -0.246376 -0.0341396 -0.270258 0.00396027 -0.808743 -0.78602 -0.740753 -0.758142 -0.101774 0.0837847 -0.182656 -0.0915309 0.227871 0.274741 0.48492 0.523294 0.21519 0.414473 0.203651 0.383922 
SCALARS phi_n double 1
LOOKUP_TABLE default
-1.17495 -1.18331 -1.45437 -1.43759 -0.0386752 -0.460628 0.0704362 -0.292671 1.65298 1.62747 1.5515 1.51755 -0.221232 0.196801 0.221232 0.690625 1.37954 1.51755 1.1377 1.33623 -0.221232 -0.64204 0.196801 -0.253526 -1.40198 -0.846364 -1 -0.486028 1.1377 1.33623 0.892323 0.890072 0.892323 0.890072 0.584078 0.360155 -0.846364 -0.301666 -0.486028 0.0159842 -0.439502 -0.240341 0.0205276 0.260927 -0.439502 -0.817099 -0.240341 -0.662496 0.369071 0.739129 0.174659 0.584078 1.5674 1.63158 1.61886 1.73052 -1.17574 -1.41609 -0.994959 -1.16667 -0.427127 -0.0327449 -0.583673 -0.212392 -0.571706 0.0120145 -0.658514 -0.164076 1.4932 1.61886 1.65298 1.73052 -0.253526 -0.486028 0.382294 0.0159842 0.382294 0.0159842 0.890072 0.360155 0.389789 0.919728 0.23646 0.711233 0.526304 0.792344 0.369071 0.739129 -0.669484 -1.078 -0.221232 -0.64204 -0.732246 -0.695777 -1.08975 -0.911305 -0.738921 -0.377435 -0.829785 -0.191591 -0.644132 -1.09887 -0.669484 -1.078 -1.09887 -0.97735 -1.44468 -1.35803 1.02335 1.0992 1.3968 1.3968 -1.08137 -1.12601 -1.35462 -1.42242 -1.40198 -1.3416 -0.846364 -0.829785 1.06765 0.835931 1.26007 1 1.3968 1.3968 1.5674 1.63158 -1.72834 -1.66515 -1.69053 -1.64555 -1.64334 -1.60199 -1.72834 -1.66515 -1.64334 -1.72834 -1.56792 -1.66028 -0.885785 -0.844759 -1.18331 -1.08137 -0.240341 -0.662496 -0.0386752 -0.460628 -0.662496 -1.0506 -0.460628 -0.841878 -0.460628 -0.841878 -0.292671 -0.511891 0.0704362 -0.292671 -0.0225882 -0.511891 1.44271 1.10501 1.33623 0.890072 1.44271 1.46517 1.10501 1.15208 0.521332 0.311394 1.06765 0.835931 0.835931 0.528418 1 0.64204 -1.64555 -1.28396 -1.58966 -1.3416 0.594331 1.11951 0.389789 0.919728 0.0205276 0.260927 0.575109 0.831872 0.311394 0.0354214 0.835931 0.528418 0.690369 0.382294 1.10501 0.890072 -1.36144 -1.56792 -1.17574 -1.41609 1.3968 1.26007 1.63158 1.56493 -1.60199 -1.42242 -1.66515 -1.42428 1.56493 1.34991 1.66965 1.46517 1.62747 1.44271 1.51755 1.33623 -1.69053 -1.55307 -1.44468 -1.29543 -0.846364 -0.829785 -0.301666 -0.191591 -1.41609 -1.58162 -1.16667 -1.35803 -1.69053 -1.44468 -1.58162 -1.35803 1.25863 1.5674 1.2906 1.61886 -1.12601 -1.08975 -1.42242 -1.42428 1.26007 1 1.56493 1.34991 0.196801 -0.253526 0.690369 0.382294 0.575109 0.831872 1 1.26007 0.260927 0.475965 0.831872 1.02335 0.831872 1.02335 1.26007 1.3968 -0.251119 -0.485423 0.311394 0.0354214 -0.7315 -0.732246 -1.12601 -1.08975 -0.658514 -0.7315 -1.08137 -1.12601 -0.0225882 -0.251119 0.521332 0.311394 0.103928 0.526304 -0.0327449 0.369071 -0.841878 -1.17574 -0.511891 -0.994959 0.221232 0.690625 0.64204 1.04788 -0.439502 -0.517968 -0.817099 -0.885785 -0.0225882 -0.511891 -0.251119 -0.765062 1.63158 1.56493 1.73052 1.66965 -0.301666 -0.191591 0.0159842 0.360155 -0.240341 -0.0386752 0.260927 0.475965 -1.18331 -1.08137 -1.43759 -1.35462 -1.45437 -1.43759 -1.64334 -1.60199 1.0118 1.1377 0.792344 0.739129 1.1377 0.892323 0.739129 0.584078 -1.43759 -1.35462 -1.60199 -1.42242 -0.571706 -0.658514 -0.844759 -1.08137 0.23646 0.711233 0.103928 0.526304 1.34991 1.04788 1.46517 1.15208 -0.644132 -0.485423 -1.09887 -0.97735 0.196801 0.690369 0.690625 0.860872 -0.265004 0.23646 -0.334651 0.103928 -0.7315 -0.265004 -0.732246 -0.334651 1.62747 1.66965 1.44271 1.46517 0.594331 0.802322 1.11951 1.2906 -0.765062 -1.16667 -0.97735 -1.35803 -1.0506 -1.36144 -0.841878 -1.17574 1.11951 1.4932 0.919728 1.35341 -1.28396 -0.738921 -1.3416 -0.829785 0.186608 0.221232 0.528418 0.64204 1.0992 1.06765 1.3968 1.26007 -1.17495 -1.45437 -1.0506 -1.36144 1 0.64204 1.34991 1.04788 -0.817099 -1.17495 -0.662496 -1.0506 -0.695777 -0.427127 -0.911305 -0.583673 -0.669484 -0.221232 -0.218776 0.221232 -0.583673 -0.212392 -0.738921 -0.377435 -0.644132 -0.212117 -0.485423 0.0354214 -0.439502 0.0205276 -0.517968 -0.0712323 -0.644132 -0.669484 -0.212117 -0.218776 1.26007 1.3968 1.25863 1.5674 -1.45437 -1.64334 -1.36144 -1.56792 -0.658514 -0.164076 -0.7315 -0.265004 1.4932 1.65298 1.35341 1.5515 1.35341 1.5515 1.37954 1.51755 0.0704362 -0.0225882 0.572377 0.521332 0.919728 1.35341 0.711233 1.0118 1.11951 1.2906 1.4932 1.61886 0.0120145 0.594331 -0.164076 0.389789 -0.911305 -0.583673 -1.28396 -0.738921 -0.334651 0.103928 -0.427127 -0.0327449 1.35341 1.37954 1.0118 1.1377 0.174659 0.584078 -0.191591 0.360155 0.575109 1 0.455001 0.867057 -0.0386752 0.0704362 0.475965 0.572377 -0.251119 -0.765062 -0.485423 -0.97735 -1.078 -1.29543 -0.64204 -1 -0.732246 -0.334651 -0.695777 -0.427127 -1.08975 -0.911305 -1.42428 -1.28396 0.711233 1.0118 0.526304 0.792344 -0.164076 0.389789 -0.265004 0.23646 0.690369 1.10501 0.860872 1.15208 -0.212117 -0.218776 0.186608 0.221232 0.690625 0.860872 1.04788 1.15208 -0.517968 -0.571706 -0.885785 -0.844759 0.867057 1.25863 0.802322 1.2906 -0.0712323 0.455001 0.0120145 0.429874 -0.64204 -1 -0.253526 -0.486028 0.0120145 0.429874 0.594331 0.802322 0.0205276 0.575109 -0.0712323 0.455001 -0.511891 -0.994959 -0.765062 -1.16667 -1.66515 -1.42428 -1.64555 -1.28396 -0.212117 0.186608 0.0354214 0.528418 -1.55307 -1.40198 -1.29543 -1 -1.55307 -1.58966 -1.40198 -1.3416 -1.09887 -1.44468 -1.078 -1.29543 1 1.26007 0.867057 1.25863 1.65298 1.73052 1.62747 1.66965 -1.56792 -1.66028 -1.41609 -1.58162 -0.0327449 0.369071 -0.212392 0.174659 0.572377 0.521332 1.0992 1.06765 -1.72834 -1.69053 -1.66028 -1.58162 -0.817099 -0.885785 -1.17495 -1.18331 -0.517968 -0.0712323 -0.571706 0.0120145 -1.69053 -1.64555 -1.55307 -1.58966 -0.212392 0.174659 -0.377435 -0.191591 0.475965 0.572377 1.02335 1.0992 0.455001 0.867057 0.429874 0.802322 
SCALARS alpha double 1
LOOKUP_TABLE default
0.59031 0.586955 0.587293 0.579841 0.591905 0.584049 0.584953 0.59386 0.585439 0.589597 0.585405 0.570671 0.604787 0.615036 0.596401 0.597303 0.591864 0.570671 0.582445 0.599454 0.604787 0.606189 0.615036 0.600445 0.618247 0.622691 0.626004 0.607175 0.582445 0.599454 0.607957 0.603678 0.607957 0.603678 0.58244 0.607212 0.622691 0.617478 0.607175 0.601289 0.596468 0.598457 0.607461 0.610053 0.596468 0.591576 0.598457 0.593919 0.578812 0.577891 0.587285 0.58244 0.614061 0.608689 0.610432 0.602814 0.581903 0.583669 0.610169 0.586871 0.571887 0.580224 0.575903 0.574329 0.596886 0.604725 0.603198 0.604685 0.598243 0.610432 0.585439 0.602814 0.600445 0.607175 0.614171 0.601289 0.614171 0.601289 0.603678 0.607212 0.599043 0.600471 0.593541 0.589253 0.577446 0.57671 0.578812 0.577891 0.613965 0.606947 0.604787 0.606189 0.577019 0.573422 0.589668 0.585274 0.589263 0.591902 0.604095 0.590313 0.599618 0.607547 0.613965 0.606947 0.607547 0.599675 0.607047 0.591519 0.610473 0.60468 0.610337 0.608702 0.584707 0.594462 0.588048 0.581071 0.618247 0.611094 0.622691 0.604095 0.611406 0.613314 0.615002 0.610175 0.610337 0.608702 0.614061 0.608689 0.589752 0.589644 0.593443 0.599635 0.586342 0.584285 0.589752 0.589644 0.586342 0.589752 0.577096 0.587437 0.580682 0.592505 0.586955 0.584707 0.598457 0.593919 0.591905 0.584049 0.593919 0.593162 0.584049 0.596898 0.584049 0.596898 0.59386 0.594757 0.584953 0.59386 0.594654 0.594757 0.59287 0.597867 0.599454 0.603678 0.59287 0.59233 0.597867 0.581414 0.603511 0.604389 0.611406 0.613314 0.613314 0.610351 0.610175 0.609779 0.599635 0.60432 0.605985 0.611094 0.605934 0.602192 0.599043 0.600471 0.607461 0.610053 0.604108 0.61 0.604389 0.598965 0.613314 0.610351 0.591818 0.614171 0.597867 0.603678 0.587953 0.577096 0.581903 0.583669 0.608702 0.615002 0.608689 0.607377 0.584285 0.581071 0.589644 0.596765 0.607377 0.603503 0.597206 0.59233 0.589597 0.59287 0.570671 0.599454 0.593443 0.604819 0.607047 0.59739 0.622691 0.604095 0.617478 0.590313 0.583669 0.586672 0.586871 0.591519 0.593443 0.607047 0.586672 0.591519 0.615769 0.614061 0.612655 0.610432 0.594462 0.589668 0.581071 0.596765 0.615002 0.610175 0.607377 0.603503 0.615036 0.600445 0.591818 0.614171 0.604108 0.61 0.649124 0.625567 0.610053 0.603768 0.61 0.610473 0.61 0.610473 0.625567 0.610337 0.600793 0.599708 0.604389 0.598965 0.591426 0.577019 0.594462 0.589668 0.603198 0.591426 0.584707 0.594462 0.594654 0.600793 0.603511 0.604389 0.586044 0.577446 0.580224 0.578812 0.596898 0.581903 0.594757 0.610169 0.596401 0.597303 0.609779 0.597991 0.596468 0.593097 0.591576 0.580682 0.594654 0.594757 0.600793 0.598481 0.608689 0.607377 0.602814 0.597206 0.617478 0.590313 0.601289 0.607212 0.598457 0.591905 0.610053 0.603768 0.586955 0.584707 0.579841 0.588048 0.587293 0.579841 0.586342 0.584285 0.588568 0.582445 0.57671 0.577891 0.582445 0.607957 0.577891 0.58244 0.579841 0.588048 0.584285 0.581071 0.596886 0.603198 0.592505 0.584707 0.593541 0.589253 0.586044 0.577446 0.603503 0.597991 0.59233 0.581414 0.599618 0.599708 0.607547 0.599675 0.615036 0.591818 0.597303 0.582917 0.59153 0.593541 0.582677 0.586044 0.591426 0.59153 0.577019 0.582677 0.589597 0.597206 0.59287 0.59233 0.605934 0.597111 0.602192 0.612655 0.598481 0.586871 0.599675 0.591519 0.593162 0.587953 0.596898 0.581903 0.602192 0.598243 0.600471 0.58684 0.60432 0.589263 0.611094 0.604095 0.615167 0.596401 0.610351 0.609779 0.60468 0.611406 0.608702 0.615002 0.59031 0.587293 0.593162 0.587953 0.610175 0.609779 0.603503 0.597991 0.591576 0.59031 0.593919 0.593162 0.573422 0.571887 0.585274 0.575903 0.613965 0.604787 0.615794 0.596401 0.575903 0.574329 0.589263 0.591902 0.599618 0.592681 0.599708 0.598965 0.596468 0.607461 0.593097 0.610403 0.599618 0.613965 0.592681 0.615794 0.625567 0.610337 0.615769 0.614061 0.587293 0.586342 0.587953 0.577096 0.603198 0.604685 0.591426 0.59153 0.598243 0.585439 0.58684 0.585405 0.58684 0.585405 0.591864 0.570671 0.584953 0.594654 0.59712 0.603511 0.600471 0.58684 0.589253 0.588568 0.602192 0.612655 0.598243 0.610432 0.604725 0.605934 0.604685 0.599043 0.585274 0.575903 0.60432 0.589263 0.582677 0.586044 0.571887 0.580224 0.58684 0.591864 0.588568 0.582445 0.587285 0.58244 0.590313 0.607212 0.604108 0.649124 0.585818 0.600235 0.591905 0.584953 0.603768 0.59712 0.600793 0.598481 0.599708 0.599675 0.606947 0.59739 0.606189 0.626004 0.577019 0.582677 0.573422 0.571887 0.589668 0.585274 0.596765 0.60432 0.589253 0.588568 0.577446 0.57671 0.604685 0.599043 0.59153 0.593541 0.591818 0.597867 0.582917 0.581414 0.592681 0.615794 0.615167 0.596401 0.597303 0.582917 0.597991 0.581414 0.593097 0.596886 0.580682 0.592505 0.600235 0.615769 0.597111 0.612655 0.610403 0.585818 0.604725 0.597115 0.606189 0.626004 0.600445 0.607175 0.604725 0.597115 0.605934 0.597111 0.607461 0.604108 0.610403 0.585818 0.594757 0.610169 0.598481 0.586871 0.589644 0.596765 0.599635 0.60432 0.592681 0.615167 0.598965 0.610351 0.604819 0.618247 0.59739 0.626004 0.604819 0.605985 0.618247 0.611094 0.607547 0.607047 0.606947 0.59739 0.649124 0.625567 0.600235 0.615769 0.585439 0.602814 0.589597 0.597206 0.577096 0.587437 0.583669 0.586672 0.580224 0.578812 0.574329 0.587285 0.59712 0.603511 0.60468 0.611406 0.589752 0.593443 0.587437 0.586672 0.591576 0.580682 0.59031 0.586955 0.593097 0.610403 0.596886 0.604725 0.593443 0.599635 0.604819 0.605985 0.574329 0.587285 0.591902 0.590313 0.603768 0.59712 0.610473 0.60468 0.585818 0.600235 0.597115 0.597111 
SCALARS boundary_type double 1
LOOKUP_TABLE default
0 0 0 0 0 0 0 0 0 0 0 0 0 0 0 0 0 0 0 0 0 0 0 0 0 0 0 0 0 0 0 0 0 0 0 0 0 0 0 0 0 0 0 0 0 0 0 0 0 0 0 0 0 0 0 0 0 0 0 0 0 0 0 0 0 0 0 0 0 0 0 0 0 0 0 0 0 0 0 0 0 0 0 0 0 0 0 0 0 0 0 0 0 0 0 0 0 0 0 0 0 0 0 0 0 0 0 0 0 0 0 0 0 0 0 0 0 0 0 0 0 0 0 0 0 0 0 0 0 0 0 0 0 0 0 0 0 0 0 0 0 0 0 0 0 0 0 0 0 0 0 0 0 0 0 0 0 0 0 0 0 0 0 0 0 0 0 0 0 0 0 0 0 0 0 0 0 0 0 0 0 0 0 0 0 0 0 0 0 0 0 0 0 0 0 0 0 0 0 0 0 0 0 0 0 0 0 0 0 0 0 0 0 0 0 0 0 0 0 0 0 0 0 0 0 0 0 0 0 0 0 0 0 0 0 0 0 0 0 0 0 0 0 0 0 0 0 0 0 0 0 0 0 0 0 0 0 0 0 0 0 0 0 0 0 0 0 0 0 0 0 0 0 0 0 0 0 0 0 0 0 0 0 0 0 0 0 0 0 0 0 0 0 0 0 0 0 0 0 0 0 0 0 0 0 0 0 0 0 0 0 0 0 0 0 0 0 0 0 0 0 0 0 0 0 0 0 0 0 0 0 0 0 0 0 0 0 0 0 0 0 0 0 0 0 0 0 0 0 0 0 0 0 0 0 0 0 0 0 0 0 0 0 0 0 0 0 0 0 0 0 0 0 0 0 0 0 0 0 0 0 0 0 0 0 0 0 0 0 0 0 0 0 0 0 0 0 0 0 0 0 0 0 0 0 0 0 0 0 0 0 0 0 0 0 0 0 0 0 0 0 0 0 0 0 0 0 0 0 0 0 0 0 0 0 0 0 0 0 0 0 0 0 0 0 0 0 0 0 0 0 0 0 0 0 0 0 0 0 0 0 0 0 0 0 0 0 0 0 0 0 0 0 0 0 0 0 0 0 0 0 0 0 0 0 0 0 0 0 0 0 0 0 0 0 0 0 0 0 0 0 0 0 0 0 0 0 0 0 0 0 0 0 0 0 0 0 0 0 0 0 0 0 0 0 0 0 0 0 0 0 0 0 0 0 0 0 0 0 0 0 0 0 0 0 0 0 0 0 0 0 0 0 0 0 0 0 0 0 0 0 0 0 0 0 0 0 0 0 0 0 0 0 0 0 0 0 0 0 0 0 0 0 0 0 0 0 0 0 0 0 0 0 0 0 0 0 0 0 0 0 0 0 0 0 0 0 0 0 0 0 0 0 0 0 0 
SCALARS phi_exact double 1
LOOKUP_TABLE default