# vtk DataFile Version 3.0
#This file was generated by the deal.II library on 2025/2/17 at 12:21:53
ASCII
DATASET UNSTRUCTURED_GRID

POINTS 2204 double
-0.828025 -0.129113 -0.545622
-0.863229 -0.25666 -0.434698
-0.888261 -0.04506 -0.457123
-0.905324 -0.140258 -0.400894
-0.222439 -0.786257 -0.576473
-0.33095 -0.727841 -0.6006
-0.143936 -0.714228 -0.684953
-0.338667 -0.644002 -0.685978
0.736272 -0.295739 0.608639
0.622658 -0.287939 0.727591
0.677044 -0.432527 0.595425
0.542795 -0.452307 0.707667
0.959677 0.239959 -0.146424
0.980099 0.112507 -0.16355
0.917226 0.287101 -0.27617
0.942707 0.149444 -0.298277
-0.448153 0.811796 0.374362
-0.379435 0.883935 0.273291
-0.572477 0.774849 0.268101
-0.49443 0.851261 0.175765
-0.474607 0.781071 -0.405803
-0.588031 0.692945 -0.417189
-0.496617 0.812461 -0.305417
-0.606442 0.748147 -0.269266
0.15668 -0.835238 0.527094
0.304114 -0.785862 0.538456
0.118611 -0.758593 0.640677
0.277028 -0.709611 0.647849
-0.298672 -0.318653 0.899586
-0.123001 -0.319763 0.93948
-0.310766 -0.203844 0.928371
-0.12955 -0.163004 0.978083
-0.904012 0.272581 -0.329335
-0.850703 0.337823 -0.402717
-0.888023 0.171583 -0.426585
-0.825097 0.286364 -0.487043
0.400469 0.471584 -0.785642
0.45955 0.320299 -0.828385
0.270472 0.377634 -0.885572
0.355383 0.163726 -0.92027
0.324699 -7.95284e-17 -0.945817
0.355383 0.163726 -0.92027
0.475947 -1.16573e-16 -0.879474
0.550943 0.158715 -0.819311
0.405909 0.619439 -0.671962
0.400469 0.471584 -0.785642
0.250597 0.666646 -0.701985
0.215678 0.560606 -0.799502
-0.586196 -0.52763 -0.614801
-0.46583 -0.490196 -0.736688
-0.50323 -0.650444 -0.56893
-0.338667 -0.644002 -0.685978
0.31884 -0.314023 0.894277
0.259969 -0.154603 0.95316
0.174762 -0.370545 0.912225
0.0817322 -0.142868 0.986361
0.630751 0.724265 -0.278557
0.656554 0.633885 -0.408812
0.507928 0.774458 -0.377126
0.535124 0.685799 -0.493277
0.37753 0.809954 -0.448826
0.507928 0.774458 -0.377126
0.39951 0.723965 -0.562376
0.535124 0.685799 -0.493277
-0.186355 0.0678392 -0.980138
6.12323e-17 -1.49976e-32 -1
-0.240715 -0.0959539 -0.965841
-0.122454 -0.107199 -0.986668
0.00959818 -0.863826 0.503699
0.0455115 -0.922554 0.383174
0.15668 -0.835238 0.527094
0.191302 -0.891456 0.410742
-0.82345 -0.420424 -0.381016
-0.863229 -0.25666 -0.434698
-0.751098 -0.416788 -0.511996
-0.787214 -0.310554 -0.532776
0.525344 -0.314376 -0.790684
0.386395 -0.311751 -0.86805
0.542323 -0.146315 -0.827332
0.401415 -0.146621 -0.904084
0.0278889 -0.429745 0.902519
0.174762 -0.370545 0.912225
-0.0095739 -0.29467 0.955551
0.0817322 -0.142868 0.986361
-0.887778 0.390133 -0.244228
-0.846763 0.508186 -0.157289
-0.802533 0.465396 -0.373293
-0.768987 0.587016 -0.253122
-0.484729 -0.774115 0.407167
-0.369683 -0.869289 0.328134
-0.364215 -0.794447 0.486006
-0.278053 -0.853725 0.440273
-0.0799324 0.996082 -0.0378433
-0.216999 0.97412 0.0632656
-0.0301687 0.995507 0.0897581
-0.0994354 0.982527 0.157329
0.400469 0.471584 -0.785642
0.270472 0.377634 -0.885572
0.215678 0.560606 -0.799502
0.180808 0.475152 -0.861126
0.649778 -0.312982 -0.692699
0.670334 -0.142868 -0.728177
0.758405 -0.310988 -0.572808
0.781931 -0.139908 -0.607462
0.324699 -7.95284e-17 -0.945817
0.164595 -4.0314e-17 -0.986361
0.355383 0.163726 -0.92027
0.194822 0.149358 -0.9694
-0.310766 -0.203844 0.928371
-0.12955 -0.163004 0.978083
-0.441795 -0.0868531 0.892902
-0.288471 0.111048 0.951027
-0.440384 -0.298053 -0.846892
-0.496543 -0.14322 -0.856115
-0.300088 -0.227723 -0.926331
-0.408707 -0.112784 -0.90567
-0.946862 0.293187 -0.132261
-0.887778 0.390133 -0.244228
-0.95867 0.172553 -0.226226
-0.904012 0.272581 -0.329335
-0.818516 -0.541993 -0.190461
-0.762777 -0.553108 -0.335026
-0.738235 -0.658634 -0.145637
-0.683426 -0.67198 -0.285257
0.630751 0.724265 -0.278557
0.735773 0.652746 -0.180445
0.656554 0.633885 -0.408812
0.75892 0.570554 -0.313861
-0.344463 -0.434185 -0.832364
-0.210823 -0.545313 -0.811288
-0.46583 -0.490196 -0.736688
-0.338667 -0.644002 -0.685978
0.525344 -0.314376 -0.790684
0.542323 -0.146315 -0.827332
0.649778 -0.312982 -0.692699
0.670334 -0.142868 -0.728177
0.622658 -0.287939 0.727591
0.474509 -0.237015 0.847741
0.542795 -0.452307 0.707667
0.460314 -0.38543 0.799722
0.45955 0.320299 -0.828385
0.566135 0.308564 -0.764382
0.355383 0.163726 -0.92027
0.550943 0.158715 -0.819311
-0.690594 0.593307 -0.413603
-0.802533 0.465396 -0.373293
-0.698905 0.641138 -0.316975
-0.768987 0.587016 -0.253122
0.582736 0.768791 0.263401
0.48913 0.777525 0.395231
0.652747 0.668843 0.355766
0.55934 0.679778 0.474385
0.827932 -0.288813 0.480745
0.736272 -0.295739 0.608639
0.771021 -0.416332 0.481866
0.677044 -0.432527 0.595425
0.022811 -0.962325 -0.270943
0.133246 -0.970139 -0.202673
-0.0476545 -0.988117 -0.146129
0.0734323 -0.992993 -0.0925848
0.246107 -0.296913 -0.922645
0.241368 -0.141887 -0.960005
0.386395 -0.311751 -0.86805
0.401415 -0.146621 -0.904084
-0.50524 0.724435 0.468963
-0.448153 0.811796 0.374362
-0.635091 0.680776 0.364971
-0.572477 0.774849 0.268101
0.083712 -0.672748 0.73512
0.242102 -0.61538 0.750129
0.0525812 -0.559339 0.82727
0.213074 -0.5096 0.833611
-0.548506 0.158947 -0.8209
-0.455218 0.179582 -0.872082
-0.540636 0.00981355 -0.8412
-0.381087 0.0599101 -0.922596
-0.740723 0.670937 0.034263
-0.646938 0.761333 -0.0429424
-0.794222 0.603872 -0.0674534
-0.7117 0.685053 -0.155514
-0.608406 0.0891223 0.788606
-0.489806 0.126107 0.862663
-0.603411 0.251124 0.756856
-0.485529 0.260974 0.834358
-0.544176 -0.838232 -0.0352084
-0.648723 -0.755038 -0.0952729
-0.480513 -0.858297 -0.180091
-0.588404 -0.774038 -0.233764
0.0787101 0.837993 -0.539975
0.152762 0.769762 -0.619783
-0.0260286 0.758626 -0.651006
0.10518 0.710101 -0.696199
0.400469 0.471584 -0.785642
0.560506 0.448823 -0.695982
0.45955 0.320299 -0.828385
0.566135 0.308564 -0.764382
0.918588 0.369859 0.139288
0.951026 0.309089 -0.00373117
0.879999 0.47405 0.0296421
0.908418 0.40118 -0.117603
0.148399 0.710881 0.687478
0.203193 0.785771 0.584189
-0.00229964 0.770973 0.636864
0.0481902 0.849466 0.525438
0.270472 0.377634 -0.885572
0.355383 0.163726 -0.92027
0.123338 0.34493 -0.93049
0.194822 0.149358 -0.9694
-0.887778 0.390133 -0.244228
-0.802533 0.465396 -0.373293
-0.904012 0.272581 -0.329335
-0.850703 0.337823 -0.402717
0.807507 0.280595 0.518844
0.709909 0.280831 0.645882
0.781045 0.142868 0.607912
0.669508 0.139606 0.729568
0.270472 0.377634 -0.885572
0.123338 0.34493 -0.93049
0.180808 0.475152 -0.861126
0.0481462 0.468033 -0.882398
0.405909 0.619439 -0.671962
0.548994 0.574697 -0.606901
0.400469 0.471584 -0.785642
0.560506 0.448823 -0.695982
0.669178 0.532337 -0.518477
0.678674 0.421709 -0.601302
0.548994 0.574697 -0.606901
0.560506 0.448823 -0.695982
0.608609 0.431012 0.666201
0.596584 0.566673 0.568304
0.484754 0.438676 0.756688
0.461762 0.594084 0.658665
0.123338 0.34493 -0.93049
-0.0685972 0.254441 -0.964652
0.0481462 0.468033 -0.882398
-0.172746 0.411713 -0.894791
0.215678 0.560606 -0.799502
0.180808 0.475152 -0.861126
0.0230597 0.580165 -0.814173
0.0481462 0.468033 -0.882398
0.669178 0.532337 -0.518477
0.76353 0.476286 -0.436089
0.678674 0.421709 -0.601302
0.751997 0.403705 -0.521078
-0.828025 -0.129113 -0.545622
-0.734521 -0.225267 -0.640104
-0.863229 -0.25666 -0.434698
-0.787214 -0.310554 -0.532776
0.280868 0.627515 0.72618
0.366857 0.560893 0.742169
0.338373 0.699485 0.629463
0.461762 0.594084 0.658665
-0.186355 0.0678392 -0.980138
-0.315728 0.215116 -0.924143
-0.0685972 0.254441 -0.964652
-0.172746 0.411713 -0.894791
-0.40967 0.297778 -0.862264
-0.326344 0.451552 -0.830422
-0.315728 0.215116 -0.924143
-0.172746 0.411713 -0.894791
0.407313 0.751112 0.519545
0.273748 0.85171 0.446824
0.338373 0.699485 0.629463
0.203193 0.785771 0.584189
-0.516454 0.314017 -0.796661
-0.40967 0.297778 -0.862264
-0.548506 0.158947 -0.8209
-0.455218 0.179582 -0.872082
0.231459 0.535776 0.812016
0.0893969 0.618878 0.780383
0.152072 0.445616 0.882213
0.00457661 0.526917 0.849904
0.48913 0.777525 0.395231
0.375818 0.843248 0.384309
0.407313 0.751112 0.519545
0.273748 0.85171 0.446824
0.273748 0.85171 0.446824
0.0974935 0.907589 0.408383
0.203193 0.785771 0.584189
0.0481902 0.849466 0.525438
-0.516454 0.314017 -0.796661
-0.548506 0.158947 -0.8209
-0.642789 0.262807 -0.719552
-0.686934 0.124725 -0.715936
-0.516454 0.314017 -0.796661
-0.642789 0.262807 -0.719552
-0.606923 0.439917 -0.661904
-0.697047 0.327168 -0.638033
-0.0852167 0.867487 -0.490107
-0.155308 0.793701 -0.588148
-0.19191 0.875488 -0.443498
-0.295363 0.806763 -0.511757
-0.415901 -0.749598 -0.514908
-0.50323 -0.650444 -0.56893
-0.33095 -0.727841 -0.6006
-0.338667 -0.644002 -0.685978
0.241368 -0.141887 -0.960005
0.324699 -7.95284e-17 -0.945817
0.401415 -0.146621 -0.904084
0.475947 -1.16573e-16 -0.879474
-0.66114 0.520863 -0.539995
-0.606923 0.439917 -0.661904
-0.751966 0.403762 -0.521079
-0.697047 0.327168 -0.638033
-0.960253 0.204434 0.190056
-0.926267 0.230377 0.298255
-0.929901 0.333583 0.15494
-0.878395 0.363918 0.309817
0.021245 0.971894 0.234458
-0.0474574 0.938867 0.340993
0.152873 0.941595 0.300046
0.0974935 0.907589 0.408383
-0.36115 0.735896 0.572737
-0.418693 0.636821 0.647422
-0.209632 0.719812 0.661759
-0.277994 0.621978 0.732027
-0.185934 -0.972892 0.137513
-0.117563 -0.99306 -0.00314751
-0.0551095 -0.978257 0.199941
0.0119266 -0.998632 0.0509183
-0.636255 -0.200411 0.744994
-0.562529 -0.223382 0.796029
-0.685328 -0.0652313 0.725307
-0.584411 -0.0756261 0.807926
-0.88111 0.456142 0.124818
-0.904563 0.425715 -0.0230945
-0.929901 0.333583 0.15494
-0.948363 0.313521 0.0480856
-0.36115 0.735896 0.572737
-0.209632 0.719812 0.661759
-0.30883 0.82429 0.474522
-0.157822 0.809748 0.565155
-0.943445 -0.0577237 0.326464
-0.965083 0.0743078 0.251185
-0.973658 -0.111895 0.198671
-0.993338 0.015845 0.114139
-0.35251 0.860394 -0.368047
-0.295363 0.806763 -0.511757
-0.474607 0.781071 -0.405803
-0.443922 0.725138 -0.526411
0.542323 -0.146315 -0.827332
0.614213 -1.50439e-16 -0.789141
0.670334 -0.142868 -0.728177
0.735724 -1.802e-16 -0.677282
-0.300088 -0.227723 -0.926331
-0.240715 -0.0959539 -0.965841
[...]
POINT_DATA 2204
SCALARS phi double 1
LOOKUP_TABLE default
-0.742984 -0.768739 -0.687085 -0.715398 -0.78255 -0.819722 -0.761449 -0.823345 0.518707 0.524431 0.415427 0.394886 0.520982 0.45918 0.45901 0.391754 0.364793 0.384608 0.232388 0.263535 -0.0489604 -0.154324 0.00583167 -0.0621975 -0.0747314 0.0285186 0.000384123 0.106487 0.140004 0.245336 0.206003 0.338495 -0.475073 -0.452287 -0.565357 -0.507505 0.0423707 -0.0256159 -0.117231 -0.197045 -0.306068 -0.197045 -0.198746 -0.0548151 0.173835 0.0423707 0.105808 -0.0110195 -0.853533 -0.835314 -0.850606 -0.823345 0.444174 0.521345 0.354327 0.45579 0.531946 0.435873 0.447859 0.359561 0.365307 0.447859 0.277219 0.359561 -0.541075 -0.492969 -0.642781 -0.599815 -0.173032 -0.244676 -0.0747314 -0.143336 -0.803051 -0.768739 -0.830351 -0.805843 -0.285995 -0.391432 -0.212891 -0.320411 0.247558 0.354327 0.32278 0.45579 -0.366449 -0.245658 -0.350842 -0.215463 -0.42096 -0.450213 -0.331856 -0.341718 0.43274 0.404795 0.521201 0.514182 0.0423707 -0.117231 -0.0110195 -0.101599 -0.175379 -0.0991247 -0.0611595 0.0169483 -0.306068 -0.405356 -0.197045 -0.307523 0.206003 0.338495 0.181616 0.380264 -0.78275 -0.738921 -0.717714 -0.703862 -0.388159 -0.366449 -0.500338 -0.475073 -0.766245 -0.815914 -0.762884 -0.810962 0.531946 0.596986 0.435873 0.502146 -0.795319 -0.773122 -0.835314 -0.823345 -0.285995 -0.212891 -0.175379 -0.0991247 0.524431 0.535874 0.394886 0.432693 -0.0256159 0.0541059 -0.197045 -0.0548151 -0.253123 -0.350842 -0.184814 -0.215463 0.79833 0.82212 0.829061 0.847312 0.504662 0.518707 0.414362 0.415427 -0.598683 -0.514475 -0.584521 -0.500542 -0.480245 -0.42437 -0.391432 -0.320411 0.340229 0.364793 0.202392 0.232388 0.0720782 0.186101 0.158157 0.265435 -0.598065 -0.566772 -0.677521 -0.613323 -0.0170573 0.035183 -0.127553 -0.089573 0.133028 0.246215 0.199317 0.300763 -0.700645 -0.74117 -0.750798 -0.789023 0.186032 0.149555 0.0403194 0.0575556 0.0423707 0.154255 -0.0256159 0.0541059 0.705848 0.621123 0.683771 0.588757 0.764283 0.777321 0.694582 0.703362 -0.117231 -0.197045 -0.2289 -0.307523 -0.366449 -0.350842 -0.475073 -0.452287 0.793834 0.808289 0.756728 0.760009 -0.117231 -0.2289 -0.101599 -0.182309 0.173835 0.254959 0.0423707 0.154255 0.337648 0.246142 0.254959 0.154255 0.842529 0.855692 0.829683 0.847479 -0.2289 -0.384144 -0.182309 -0.324391 -0.0110195 -0.101599 -0.103902 -0.182309 0.337648 0.397879 0.246142 0.313748 -0.742984 -0.790686 -0.768739 -0.805843 0.807799 0.825444 0.824131 0.847479 -0.541075 -0.504185 -0.384144 -0.324391 -0.480015 -0.3488 -0.504185 -0.324391 0.829514 0.777484 0.824131 0.777321 -0.49284 -0.480015 -0.598065 -0.566772 0.779843 0.735398 0.730265 0.682042 0.82212 0.793489 0.829514 0.777484 0.777484 0.698962 0.777321 0.703362 -0.49284 -0.598065 -0.543219 -0.631632 -0.49284 -0.543219 -0.409669 -0.498098 0.144687 0.0251714 0.119117 0.000225722 -0.830355 -0.850606 -0.819722 -0.823345 -0.42437 -0.306068 -0.320411 -0.198746 -0.336411 -0.409669 -0.429465 -0.498098 -0.280572 -0.195613 -0.2182 -0.100219 0.607254 0.609393 0.68965 0.698962 0.468341 0.427907 0.579167 0.531761 -0.504634 -0.550627 -0.411591 -0.46246 -0.0450726 0.00639923 -0.0122027 0.0743577 -0.148603 -0.248943 -0.2182 -0.291121 0.468341 0.579167 0.48929 0.601434 -0.333288 -0.316408 -0.438331 -0.426422 0.069823 0.000225722 -0.0489604 -0.120968 -0.212891 -0.086261 -0.0991247 0.0288349 -0.717714 -0.642781 -0.647848 -0.599815 -0.253123 -0.336411 -0.350842 -0.429465 -0.125618 -0.0784625 -0.0450726 0.00639923 -0.207981 -0.227022 -0.0472991 -0.112017 0.594311 0.607254 0.681027 0.68965 -0.438331 -0.426422 -0.533046 -0.529975 0.0567135 0.011289 0.161217 0.108438 -0.148603 -0.0772785 -0.248943 -0.149649 0.103621 0.0567135 0.213277 0.161217 -0.467626 -0.467638 -0.559802 -0.579845 -0.557924 -0.476094 -0.645086 -0.561252 -0.717288 -0.645086 -0.633604 -0.561252 -0.365722 -0.365879 -0.467626 -0.467638 -0.559139 -0.529428 -0.630631 -0.559802 -0.452392 -0.559139 -0.42096 -0.520487 0.129683 0.292439 0.215096 0.297208 -0.378713 -0.452392 -0.326788 -0.42096 0.683869 0.756728 0.697983 0.760009 -0.791002 -0.78255 -0.737416 -0.704965 -0.611945 -0.687085 -0.684467 -0.715398 -0.599944 -0.663667 -0.596779 -0.704965 0.338495 0.45579 0.491373 0.567649 -0.746386 -0.717714 -0.699856 -0.647848 -0.757257 -0.695218 -0.730712 -0.692285 0.103621 0.213277 0.129683 0.292439 -0.717288 -0.761449 -0.773122 -0.823345 -0.504634 -0.582523 -0.550627 -0.629981 -0.522972 -0.533046 -0.579845 -0.619274 -0.596779 -0.704965 -0.575735 -0.678717 -0.629981 -0.69737 -0.663677 -0.730461 -0.0122027 0.0743577 0.0260755 0.133028 0.232867 0.124273 0.357513 0.254008 -0.750798 -0.789023 -0.783358 -0.821098 -0.750798 -0.783358 -0.69737 -0.730461 0.627267 0.669748 0.662596 0.714119 0.117969 -0.0621975 0.035183 -0.089573 -0.717288 -0.773122 -0.645086 -0.699856 -0.195613 -0.199731 -0.100219 -0.0436384 -0.830355 -0.821098 -0.850606 -0.842583 -0.528537 -0.575735 -0.633604 -0.678717 -0.412256 -0.345129 -0.299019 -0.239528 0.0567135 -0.0543769 0.011289 -0.104461 -0.698939 -0.631632 -0.738554 -0.716774 0.117969 0.035183 0.187246 0.148795 -0.128865 -0.194671 -0.0235948 -0.0903341 -0.853533 -0.850606 -0.845953 -0.842583 -0.528537 -0.412256 -0.575735 -0.453572 0.391525 0.21071 0.43274 0.261513 -0.412256 -0.299019 -0.453572 -0.320513 -0.0543769 -0.164765 -0.104461 -0.225384 0.0495805 0.140004 -0.0209754 0.0633879 0.277024 0.117969 0.279242 0.187246 -0.47878 -0.453572 -0.318174 -0.320513 -0.128865 -0.318174 -0.194671 -0.320513 0.43274 0.261513 0.404795 0.277024 0.420806 0.531027 0.365307 0.447859 -0.128865 -0.104461 -0.318174 -0.225384 0.0495805 -0.0209754 -0.0550857 -0.116754 -0.100219 -0.0436384 0.054313 0.0925961 -0.853533 -0.83554 -0.835314 -0.818783 -0.280572 -0.316408 -0.195613 -0.199731 0.255233 0.175406 0.362855 0.280154 -0.411591 -0.46246 -0.311585 -0.368472 0.307458 0.255233 0.427907 0.362855 -0.311585 -0.209867 -0.244676 -0.143336 0.420806 0.373883 0.531027 0.496814 0.0891232 0.175406 -0.0436384 0.0925961 0.0260755 0.133028 0.0891232 0.199317 -0.311585 -0.368472 -0.209867 -0.269466 -0.83554 -0.790686 -0.818783 -0.776535 -0.790686 -0.738554 -0.776535 -0.716774 0.0891232 0.199317 0.175406 0.280154 0.37911 0.262402 0.391525 0.21071 0.37911 0.373883 0.262402 0.275076 0.618969 0.531027 0.699755 0.648202 0.618969 0.699755 0.679403 0.748639 0.679403 0.748639 0.726428 0.787569 0.787569 0.829061 0.809773 0.843019 0.726428 0.787569 0.756681 0.809773 0.768467 0.756681 0.812189 0.809773 0.0583011 -0.0611595 0.124273 0.0169483 0.621123 0.520982 0.588757 0.45901 -0.429465 -0.498098 -0.507505 -0.57418 0.615888 0.697983 0.621095 0.693139 -0.086261 0.0527798 0.0288349 0.156051 0.521345 0.627267 0.45579 0.567649 0.65098 0.733445 0.683869 0.756728 0.333426 0.232867 0.451755 0.357513 0.551153 0.491828 0.65098 0.600282 0.768467 0.812189 0.760348 0.793834 -0.700645 -0.638299 -0.74117 -0.688387 0.277219 0.173835 0.206667 0.105808 0.550556 0.588757 0.435668 0.45901 0.473963 0.423885 0.551153 0.491828 0.451755 0.563805 0.533253 0.633343 0.0251714 -0.0933529 0.000225722 -0.0975126 0.427907 0.362855 0.531761 0.460142 -0.528537 -0.457364 -0.412256 -0.345129 0.420806 0.365307 0.373883 0.284067 -0.372333 -0.261375 -0.457364 -0.345129 -0.125618 -0.0450726 -0.163675 -0.0122027 0.0743577 0.181616 0.133028 0.246215 -0.557924 -0.645086 -0.597343 -0.699856 0.362855 0.280154 0.460142 0.377229 0.0495805 -0.0550857 0.137885 0.0428162 0.779843 0.807216 0.807799 0.825444 -0.2289 -0.307523 -0.384144 -0.364869 0.579167 0.66656 0.601434 0.694582 0.261513 0.112143 0.277024 0.117969 -0.388159 -0.248943 -0.366449 -0.245658 0.699755 0.648202 0.757197 0.701156 0.255233 0.178168 0.175406 0.0925961 -0.350842 -0.429465 -0.452287 -0.507505 0.491828 0.418813 0.600282 0.533253 0.279242 0.187246 0.263535 0.148795 -0.460235 -0.467626 -0.529428 -0.559802 0.596986 0.647964 0.502146 0.550556 -0.253123 -0.184814 -0.154324 -0.0621975 -0.0859802 -0.103902 -0.21222 -0.208325 0.288929 0.186101 0.215096 0.106487 -0.42437 -0.510062 -0.306068 -0.405356 0.621095 0.693139 0.607562 0.669748 0.627267 0.662596 0.567649 0.596305 -0.086261 -0.198746 0.0527798 -0.0548151 0.521345 0.573364 0.627267 0.669748 -0.212891 -0.320411 -0.086261 -0.198746 -0.49284 -0.409669 -0.339102 -0.299173 0.423885 0.357158 0.491828 0.418813 0.609393 0.610184 0.698962 0.703362 0.600282 0.533253 0.690532 0.633343 -0.533046 -0.529975 -0.619274 -0.630509 -0.452687 -0.522972 -0.467638 -0.579845 -0.269466 -0.329679 -0.164765 -0.225384 0.333426 0.451755 0.418813 0.533253 -0.46246 -0.500542 -0.368472 -0.414921 -0.630631 -0.559802 -0.688516 -0.579845 -0.688516 -0.579845 -0.695218 -0.619274 -0.766245 -0.688516 -0.757257 -0.695218 0.829514 0.824131 0.847869 0.847479 0.105808 -0.0110195 0.0575556 -0.103902 -0.452687 -0.438331 -0.522972 -0.533046 -0.368472 -0.414921 -0.269466 -0.329679 0.129683 0.215096 0.0285186 0.106487 -0.500338 -0.475073 -0.611945 -0.565357 -0.0175772 0.011289 -0.128865 -0.104461 0.741312 0.68965 0.777484 0.698962 -0.280572 -0.409538 -0.316408 -0.426422 -0.388159 -0.409538 -0.248943 -0.291121 0.246142 0.160056 0.154255 0.0541059 0.531027 0.496814 0.648202 0.585618 -0.695218 -0.619274 -0.692285 -0.630509 -0.148603 -0.2182 -0.0751948 -0.100219 0.65098 0.600282 0.733445 0.690532 0.601434 0.694582 0.610184 0.703362 -0.452392 -0.460235 -0.559139 -0.529428 -0.74117 -0.762884 -0.789023 -0.810962 -0.49284 -0.339102 -0.480015 -0.3488 -0.280572 -0.2182 -0.409538 -0.291121 -0.730712 -0.692285 -0.684467 -0.630509 0.83698 0.842529 0.808289 0.804753 -0.261375 -0.155076 -0.345129 -0.239528 0.160056 0.0527798 0.0541059 -0.0548151 0.842529 0.829683 0.804753 0.784214 0.808289 0.804753 0.760009 0.740125 0.254008 0.143358 0.391754 0.260618 -0.815914 -0.803051 -0.845953 -0.830351 0.596872 0.683869 0.615888 0.697983 0.414362 0.415427 0.342251 0.292439 0.37911 0.463564 0.373883 0.496814 -0.00842063 -0.110707 -0.0543769 -0.164765 -0.528537 -0.633604 -0.457364 -0.561252 -0.596779 -0.575735 -0.47878 -0.453572 0.807216 0.829683 0.825444 0.847479 -0.285995 -0.175379 -0.372333 -0.261375 -0.0489604 -0.120968 -0.154324 -0.230582 0.760348 0.793834 0.733445 0.756728 0.185195 0.0583011 0.232867 0.124273 -0.0784625 -0.174532 -0.0209754 -0.116754 -0.815914 -0.845953 -0.810962 -0.842583 0.103621 -0.00842063 0.0567135 -0.0543769 0.551153 0.65098 0.596872 0.683869 -0.207981 -0.331856 -0.227022 -0.341718 0.415427 0.394886 0.292439 0.297208 0.288929 0.394886 0.364205 0.432693 0.262402 0.144687 0.21071 0.119117 -0.207981 -0.0472991 -0.0550857 0.0428162 -0.791002 -0.830355 -0.78255 -0.819722 -0.791002 -0.737416 -0.783358 -0.730461 0.460142 0.377229 0.537519 0.446095 -0.502947 -0.47878 -0.405626 -0.318174 -0.173032 -0.0747314 -0.112017 0.000384123 0.306587 0.342251 0.213277 0.292439 0.340229 0.307458 0.468341 0.427907 -0.175379 -0.0611595 -0.261375 -0.155076 0.202392 0.0372218 0.185081 0.054313 0.0583011 -0.0659188 -0.0611595 -0.155076 0.247558 0.158157 0.354327 0.265435 -0.217692 -0.194671 -0.299019 -0.320513 -0.0933529 -0.209718 -0.0975126 -0.179588 0.804753 0.784214 0.740125 0.714119 0.807799 0.824131 0.764283 0.777321 0.760348 0.733445 0.714058 0.690532 -0.541075 -0.642781 -0.504185 -0.613323 0.491373 0.567649 0.513291 0.596305 -0.550627 -0.584521 -0.46246 -0.500542 -0.700645 -0.750798 -0.64685 -0.69737 0.757197 0.734145 0.786807 0.754874 -0.582523 -0.64685 -0.629981 -0.69737 0.618969 0.679403 0.531946 0.596986 0.0251714 0.0403194 -0.0933529 -0.0859802 -0.0122027 0.0260755 -0.113495 -0.0913692 0.277219 0.359561 0.173835 0.254959 -0.0175772 0.0473303 0.011289 0.108438 -0.351518 -0.452687 -0.365879 -0.467638 -0.543219 -0.631632 -0.498098 -0.57418 0.0288349 0.156051 0.143358 0.260618 0.124273 0.0169483 0.254008 0.143358 0.444174 0.364205 0.535874 0.432693 -0.0991247 0.0288349 0.0169483 0.143358 -0.789023 -0.810962 -0.821098 -0.842583 0.103621 0.129683 -0.00842063 0.0217022 -0.550627 -0.629981 -0.584521 -0.663677 -0.742984 -0.698939 -0.790686 -0.738554 -0.795319 -0.835314 -0.78275 -0.818783 -0.209867 -0.269466 -0.110707 -0.164765 0.276406 0.333426 0.357158 0.418813 0.288929 0.215096 0.394886 0.297208 0.21071 0.119117 0.069823 0.000225722 0.423885 0.342282 0.357158 0.283009 -0.0472991 -0.112017 0.0720782 0.000384123 -0.446481 -0.405626 -0.414921 -0.329679 -0.0175772 -0.128865 0.0473303 -0.0235948 -0.207981 -0.0550857 -0.19325 -0.116754 -0.351518 -0.333288 -0.452687 -0.438331 -0.791002 -0.783358 -0.830355 -0.821098 0.812189 0.83698 0.793834 0.808289 -0.469988 -0.450213 -0.540376 -0.565714 0.276406 0.357158 0.210964 0.283009 0.199317 0.300763 0.280154 0.377229 -0.103902 -0.182309 -0.208325 -0.324391 -0.336411 -0.230582 -0.409669 -0.299173 -0.405626 -0.318174 -0.329679 -0.225384 0.812189 0.809773 0.83698 0.843019 -0.243474 -0.173032 -0.227022 -0.112017 0.699755 0.757197 0.748639 0.79833 0.340229 0.468341 0.364793 0.48929 -0.510062 -0.57609 -0.405356 -0.492969 -0.717288 -0.633604 -0.761449 -0.678717 0.357513 0.254008 0.45918 0.391754 0.373883 0.284067 0.275076 0.186032 0.288929 0.364205 0.186101 0.265435 0.140004 0.206003 0.0633879 0.181616 0.137885 0.0428162 0.247558 0.158157 0.779843 0.807799 0.735398 0.764283 0.435873 0.502146 0.337648 0.397879 0.621123 0.563805 0.520982 0.45918 -0.611945 -0.684467 -0.587834 -0.630509 0.181616 0.380264 0.246215 0.374111 -0.83554 -0.830351 -0.790686 -0.805843 0.647964 0.683771 0.550556 0.588757 0.757197 0.786807 0.79833 0.82212 0.404795 0.277024 0.397526 0.279242 -0.0772785 -0.0170573 -0.149649 -0.127553 -0.120968 -0.179588 -0.230582 -0.299173 0.748639 0.79833 0.787569 0.829061 -0.42096 -0.520487 -0.450213 -0.565714 -0.757257 -0.730712 -0.803051 -0.768739 0.726428 0.756681 0.647964 0.683771 0.618969 0.531946 0.531027 0.447859 0.245336 0.32278 0.338495 0.45579 0.0260755 0.0891232 -0.0913692 -0.0436384 0.435873 0.337648 0.359561 0.254959 0.254649 0.161217 0.196879 0.108438 0.693139 0.740125 0.669748 0.714119 -0.74117 -0.688387 -0.762884 -0.717975 0.276406 0.185195 0.333426 0.232867 0.300763 0.372616 0.377229 0.446095 -0.184814 -0.215463 -0.0621975 -0.089573 -0.215818 -0.0913692 -0.199731 -0.0436384 -0.597343 -0.699856 -0.57609 -0.647848 0.648202 0.585618 0.701156 0.664134 0.83698 0.843019 0.842529 0.855692 -0.671674 -0.737416 -0.663667 -0.704965 0.524431 0.621095 0.535874 0.607562 -0.0659188 -0.156174 -0.155076 -0.239528 0.786807 0.754874 0.82212 0.793489 0.364793 0.48929 0.384608 0.502943 0.397879 0.435668 0.313748 0.288458 0.768467 0.760348 0.705848 0.714058 0.144687 0.186032 0.0251714 0.0403194 0.735398 0.66656 0.682042 0.61353 -0.372333 -0.457364 -0.476094 -0.561252 -0.0170573 0.102004 0.035183 0.148795 -0.78275 -0.818783 -0.738921 -0.776535 -0.217692 -0.156174 -0.194671 -0.0903341 0.621123 0.661523 0.563805 0.633343 0.246142 0.313748 0.160056 0.288458 -0.500338 -0.611945 -0.516389 -0.587834 0.232388 0.263535 0.102004 0.148795 -0.565357 -0.507505 -0.637914 -0.57418 0.768467 0.705848 0.756681 0.683771 -0.504634 -0.469988 -0.582523 -0.540376 0.579167 0.531761 0.66656 0.61353 -0.532061 -0.597343 -0.510062 -0.57609 -0.163675 -0.227678 -0.268025 -0.288412 -0.0472991 0.0720782 0.0428162 0.158157 0.21071 0.069823 0.261513 0.112143 -0.333288 -0.215818 -0.316408 -0.199731 0.397526 0.384608 0.508351 0.502943 -0.480015 -0.504185 -0.566772 -0.613323 0.0403194 0.0575556 -0.0859802 -0.103902 0.697983 0.760009 0.693139 0.740125 0.735398 0.764283 0.66656 0.694582 -0.78255 -0.761449 -0.704965 -0.678717 -0.742984 -0.687085 -0.698939 -0.637914 -0.611945 -0.565357 -0.687085 -0.637914 -0.717714 -0.703862 -0.642781 -0.613323 -0.480245 -0.391432 -0.557924 -0.476094 -0.766245 -0.757257 -0.815914 -0.803051 -0.411591 -0.311585 -0.347255 -0.244676 0.444174 0.535874 0.521345 0.573364 0.504662 0.596872 0.518707 0.615888 0.284067 0.206667 0.186032 0.149555 -0.541075 -0.384144 -0.492969 -0.364869 -0.285995 -0.372333 -0.391432 -0.476094 -0.516389 -0.587834 -0.529975 -0.630509 -0.0933529 -0.0859802 -0.209718 -0.21222 -0.698939 -0.637914 -0.631632 -0.57418 -0.365722 -0.268025 -0.365879 -0.288412 -0.388159 -0.500338 -0.409538 -0.516389 -0.125618 -0.229237 -0.0784625 -0.174532 -0.57609 -0.647848 -0.492969 -0.599815 0.306587 0.213277 0.254649 0.161217 0.779843 0.730265 0.807216 0.73278 0.389472 0.414362 0.306587 0.342251 0.380264 0.513291 0.374111 0.49166 -0.766245 -0.762884 -0.688516 -0.717975 0.682042 0.61353 0.596279 0.537519 0.112143 0.00583167 0.117969 -0.0621975 0.185081 0.054313 0.178168 0.0925961 -0.409538 -0.516389 -0.426422 -0.529975 0.202392 0.232388 0.0372218 0.102004 0.160056 0.288458 0.0527798 0.156051 0.444174 0.354327 0.364205 0.265435 -0.738921 -0.677521 -0.703862 -0.613323 0.508351 0.502943 0.609393 0.610184 0.514182 0.508351 0.607254 0.609393 0.754874 0.681027 0.741312 0.68965 0.473963 0.551153 0.504662 0.596872 0.559217 0.594311 0.664134 0.681027 -0.345978 -0.365722 -0.460235 -0.467626 0.82212 0.829514 0.847312 0.847869 0.451755 0.357513 0.563805 0.45918 0.473963 0.389472 0.423885 0.342282 -0.257761 -0.19325 -0.174532 -0.116754 0.342282 0.254649 0.283009 0.196879 -0.0772785 0.0372218 -0.0170573 0.102004 -0.253123 -0.154324 -0.336411 -0.230582 0.502146 0.550556 0.397879 0.435668 0.518707 0.615888 0.524431 0.621095 0.365307 0.277219 0.284067 0.206667 0.389472 0.306587 0.342282 0.254649 0.807216 0.73278 0.829683 0.784214 0.531761 0.460142 0.61353 0.537519 0.521201 0.514182 0.594311 0.607254 0.734145 0.664134 0.754874 0.681027 -0.599944 -0.596779 -0.502947 -0.47878 -0.853533 -0.845953 -0.83554 -0.830351 0.730265 0.648485 0.73278 0.670855 0.45901 0.391754 0.3392 0.260618 0.340229 0.202392 0.307458 0.185081 -0.326788 -0.42096 -0.207981 -0.331856 -0.738921 -0.776535 -0.677521 -0.716774 0.276406 0.210964 0.185195 0.130928 0.129683 0.0285186 0.0217022 -0.048961 -0.0751948 -0.100219 0.0372218 0.054313 0.473963 0.504662 0.389472 0.414362 0.0635078 -0.0235948 -0.00212424 -0.0903341 0.0720782 0.000384123 0.186101 0.106487 -0.514475 -0.446481 -0.500542 -0.414921 0.43274 0.521201 0.559217 0.594311 -0.209867 -0.110707 -0.143336 -0.048961 0.435668 0.45901 0.288458 0.3392 -0.345978 -0.229237 -0.365722 -0.268025 0.37911 0.391525 0.463564 0.507435 0.705848 0.714058 0.621123 0.661523 -0.243474 -0.347255 -0.173032 -0.244676 -0.559139 -0.638299 -0.520487 -0.565714 0.374111 0.49166 0.372616 0.446095 -0.630631 -0.688516 -0.688387 -0.717975 0.185195 0.130928 0.0583011 0.0662638 -0.730712 -0.684467 -0.768739 -0.715398 -0.504634 -0.411591 -0.469988 -0.347255 -0.209718 -0.21222 -0.339102 -0.3488 -0.163675 -0.0122027 -0.227678 -0.113495 0.847312 0.847869 0.855692 0.847479 -0.514475 -0.502947 -0.446481 -0.405626 -0.326788 -0.207981 -0.257761 -0.19325 0.73278 0.662596 0.784214 0.714119 -0.217692 -0.299019 -0.156174 -0.239528 0.262402 0.275076 0.144687 0.186032 -0.795319 -0.746386 -0.773122 -0.699856 0.507435 0.559217 0.585618 0.664134 0.00639923 0.0633879 0.0743577 0.181616 -0.671674 -0.663677 -0.737416 -0.730461 0.730265 0.682042 0.648485 0.596279 0.679403 0.726428 0.596986 0.647964 -0.0784625 -0.0209754 0.00639923 0.0633879 0.307458 0.185081 0.255233 0.178168 -0.598065 -0.677521 -0.631632 -0.716774 -0.795319 -0.78275 -0.746386 -0.717714 -0.243474 -0.227022 -0.347255 -0.341718 0.535874 0.607562 0.573364 0.669748 -0.559139 -0.630631 -0.638299 -0.688387 -0.248943 -0.149649 -0.245658 -0.127553 0.130925 0.196879 0.0473303 0.108438 0.48929 0.601434 0.502943 0.610184 -0.582523 -0.540376 -0.64685 -0.565714 0.463564 0.507435 0.496814 0.585618 0.246215 0.374111 0.300763 0.372616 0.757197 0.701156 0.734145 0.664134 0.288458 0.3392 0.156051 0.260618 0.069823 -0.0489604 0.112143 0.00583167 0.206667 0.105808 0.149555 0.0575556 0.397526 0.279242 0.384608 0.263535 -0.598683 -0.584521 -0.671674 -0.663677 -0.700645 -0.64685 -0.638299 -0.565714 0.130928 0.0635078 0.0662638 -0.00212424 -0.0659188 -0.00212424 -0.156174 -0.0903341 -0.148603 -0.0751948 -0.0772785 0.0372218 -0.0747314 -0.143336 0.0285186 -0.048961 0.0583011 0.0662638 -0.0659188 -0.00212424 -0.378713 -0.345978 -0.452392 -0.460235 0.754874 0.741312 0.793489 0.777484 0.714058 0.690532 0.661523 0.633343 0.648485 0.513291 0.670855 0.596305 0.000225722 -0.0975126 -0.1209