# vtk DataFile Version 3.0
#This file was generated by the deal.II library on 2025/2/17 at 12:46:07
ASCII
DATASET UNSTRUCTURED_GRID

POINTS 384 double
0.25 0.75 0
0 0.75 0
0.25 1 0
0 1 0
0.5 0.75 0
0.25 0.75 0
0.5 1 0
0.25 1 0
0.75 0.75 0
0.5 0.75 0
0.75 1 0
0.5 1 0
1 0.75 0
0.75 0.75 0
1 1 0
0.75 1 0
0.25 0.5 0
0 0.5 0
0.25 0.75 0
0 0.75 0
0.5 0.5 0
0.25 0.5 0
0.5 0.75 0
0.25 0.75 0
0.75 0.5 0
0.5 0.5 0
0.75 0.75 0
0.5 0.75 0
1 0.5 0
0.75 0.5 0
1 0.75 0
0.75 0.75 0
0.25 0.25 0
0 0.25 0
0.25 0.5 0
0 0.5 0
0.5 0.25 0
0.25 0.25 0
0.5 0.5 0
0.25 0.5 0
0.75 0.25 0
0.5 0.25 0
0.75 0.5 0
0.5 0.5 0
1 0.25 0
0.75 0.25 0
1 0.5 0
0.75 0.5 0
0.25 0 0
0 0 0
0.25 0.25 0
0 0.25 0
0.5 0 0
0.25 0 0
0.5 0.25 0
0.25 0.25 0
0.75 0 0
0.5 0 0
0.75 0.25 0
0.5 0.25 0
1 0 0
0.75 0 0
1 0.25 0
0.75 0.25 0
0.25 0 1
0.25 0.25 1
0 0 1
0 0.25 1
0.25 0.25 1
0.25 0.5 1
0 0.25 1
0 0.5 1
0.25 0.5 1
0.25 0.75 1
0 0.5 1
0 0.75 1
0.25 0.75 1
0.25 1 1
0 0.75 1
0 1 1
0.5 0 1
0.5 0.25 1
0.25 0 1
0.25 0.25 1
0.5 0.25 1
0.5 0.5 1
0.25 0.25 1
0.25 0.5 1
0.5 0.5 1
0.5 0.75 1
0.25 0.5 1
0.25 0.75 1
0.5 0.75 1
0.5 1 1
0.25 0.75 1
0.25 1 1
0.75 0 1
0.75 0.25 1
0.5 0 1
0.5 0.25 1
0.75 0.25 1
0.75 0.5 1
0.5 0.25 1
0.5 0.5 1
0.75 0.5 1
0.75 0.75 1
0.5 0.5 1
0.5 0.75 1
0.75 0.75 1
0.75 1 1
0.5 0.75 1
0.5 1 1
1 0 1
1 0.25 1
0.75 0 1
0.75 0.25 1
1 0.25 1
1 0.5 1
0.75 0.25 1
0.75 0.5 1
1 0.5 1
1 0.75 1
0.75 0.5 1
0.75 0.75 1
1 0.75 1
1 1 1
0.75 0.75 1
0.75 1 1
0.25 0 0.25
0 0 0.25
0.25 0 0
0 0 0
0.25 0 0.5
0 0 0.5
0.25 0 0.25
0 0 0.25
0.25 0 0.75
0 0 0.75
0.25 0 0.5
0 0 0.5
0.25 0 1
0 0 1
0.25 0 0.75
0 0 0.75
0.5 0 0.25
0.25 0 0.25
0.5 0 0
0.25 0 0
0.5 0 0.5
0.25 0 0.5
0.5 0 0.25
0.25 0 0.25
0.5 0 0.75
0.25 0 0.75
0.5 0 0.5
0.25 0 0.5
0.5 0 1
0.25 0 1
0.5 0 0.75
0.25 0 0.75
0.75 0 0.25
0.5 0 0.25
0.75 0 0
0.5 0 0
0.75 0 0.5
0.5 0 0.5
0.75 0 0.25
0.5 0 0.25
0.75 0 0.75
0.5 0 0.75
0.75 0 0.5
0.5 0 0.5
0.75 0 1
0.5 0 1
0.75 0 0.75
0.5 0 0.75
1 0 0.25
0.75 0 0.25
1 0 0
0.75 0 0
1 0 0.5
0.75 0 0.5
1 0 0.25
0.75 0 0.25
1 0 0.75
0.75 0 0.75
1 0 0.5
0.75 0 0.5
1 0 1
0.75 0 1
1 0 0.75
0.75 0 0.75
1 0 0.25
1 0 0
1 0.25 0.25
1 0.25 0
1 0 0.5
1 0 0.25
1 0.25 0.5
1 0.25 0.25
1 0 0.75
1 0 0.5
1 0.25 0.75
1 0.25 0.5
1 0 1
1 0 0.75
1 0.25 1
1 0.25 0.75
1 0.25 0.25
1 0.25 0
1 0.5 0.25
1 0.5 0
1 0.25 0.5
1 0.25 0.25
1 0.5 0.5
1 0.5 0.25
1 0.25 0.75
1 0.25 0.5
1 0.5 0.75
1 0.5 0.5
1 0.25 1
1 0.25 0.75
1 0.5 1
1 0.5 0.75
1 0.5 0.25
1 0.5 0
1 0.75 0.25
1 0.75 0
1 0.5 0.5
1 0.5 0.25
1 0.75 0.5
1 0.75 0.25
1 0.5 0.75
1 0.5 0.5
1 0.75 0.75
1 0.75 0.5
1 0.5 1
1 0.5 0.75
1 0.75 1
1 0.75 0.75
1 0.75 0.25
1 0.75 0
1 1 0.25
1 1 0
1 0.75 0.5
1 0.75 0.25
1 1 0.5
1 1 0.25
1 0.75 0.75
1 0.75 0.5
1 1 0.75
1 1 0.5
1 0.75 1
1 0.75 0.75
1 1 1
1 1 0.75
1 1 0.25
1 1 0
0.75 1 0.25
0.75 1 0
1 1 0.5
1 1 0.25
0.75 1 0.5
0.75 1 0.25
1 1 0.75
1 1 0.5
0.75 1 0.75
0.75 1 0.5
1 1 1
1 1 0.75
0.75 1 1
0.75 1 0.75
0.75 1 0.25
0.75 1 0
0.5 1 0.25
0.5 1 0
0.75 1 0.5
0.75 1 0.25
0.5 1 0.5
0.5 1 0.25
0.75 1 0.75
0.75 1 0.5
0.5 1 0.75
0.5 1 0.5
0.75 1 1
0.75 1 0.75
0.5 1 1
0.5 1 0.75
0.5 1 0.25
0.5 1 0
0.25 1 0.25
0.25 1 0
0.5 1 0.5
0.5 1 0.25
0.25 1 0.5
0.25 1 0.25
0.5 1 0.75
0.5 1 0.5
0.25 1 0.75
0.25 1 0.5
0.5 1 1
0.5 1 0.75
0.25 1 1
0.25 1 0.75
0.25 1 0.25
0.25 1 0
0 1 0.25
0 1 0
0.25 1 0.5
0.25 1 0.25
0 1 0.5
0 1 0.25
0.25 1 0.75
0.25 1 0.5
0 1 0.75
0 1 0.5
0.25 1 1
0.25 1 0.75
0 1 1
0 1 0.75
0 0.75 0.25
0 1 0.25
0 0.75 0
0 1 0
0 0.75 0.5
0 1 0.5
0 0.75 0.25
0 1 0.25
0 0.75 0.75
0 1 0.75
0 0.75 0.5
0 1 0.5
0 0.75 1
0 1 1
0 0.75 0.75
0 1 0.75
0 0.5 0.25
0 0.75 0.25
0 0.5 0
0 0.75 0
0 0.5 0.5
0 0.75 0.5
0 0.5 0.25
0 0.75 0.25
0 0.5 0.75
0 0.75 0.75
0 0.5 0.5
0 0.75 0.5
0 0.5 1
0 0.75 1
0 0.5 0.75
0 0.75 0.75
0 0.25 0.25
0 0.5 0.25
0 0.25 0
0 0.5 0
0 0.25 0.5
0 0.5 0.5
0 0.25 0.25
0 0.5 0.25
0 0.25 0.75
0 0.5 0.75
0 0.25 0.5
0 0.5 0.5
0 0.25 1
0 0.5 1
0 0.25 0.75
0 0.5 0.75
0 0 0.25
0 0.25 0.25
0 0 0
0 0.25 0
0 0 0.5
0 0.25 0.5
0 0 0.25
0 0.25 0.25
0 0 0.75
0 0.25 0.75
0 0 0.5
0 0.25 0.5
0 0 1
0 0.25 1
0 0 0.75
0 0.25 0.75

CELLS 96 480
4	0	1	3	2
4	4	5	7	6
4	8	9	11	10
4	12	13	15	14
4	16	17	19	18
4	20	21	23	22
4	24	25	27	26
4	28	29	31	30
4	32	33	35	34
4	36	37	39	38
4	40	41	43	42
4	44	45	47	46
4	48	49	51	50
4	52	53	55	54
4	56	57	59	58
4	60	61	63	62
4	64	65	67	66
4	68	69	71	70
4	72	73	75	74
4	76	77	79	78
4	80	81	83	82
4	84	85	87	86
4	88	89	91	90
4	92	93	95	94
4	96	97	99	98
4	100	101	103	102
4	104	105	107	106
4	108	109	111	110
4	112	113	115	114
4	116	117	119	118
4	120	121	123	122
4	124	125	127	126
4	128	129	131	130
4	132	133	135	134
4	136	137	139	138
4	140	141	143	142
4	144	145	147	146
4	148	149	151	150
4	152	153	155	154
4	156	157	159	158
4	160	161	163	162
4	164	165	167	166
4	168	169	171	170
4	172	173	175	174
4	176	177	179	178
4	180	181	183	182
4	184	185	187	186
4	188	189	191	190
4	192	193	195	194
4	196	197	199	198
4	200	201	203	202
4	204	205	207	206
4	208	209	211	210
4	212	213	215	214
4	216	217	219	218
4	220	221	223	222
4	224	225	227	226
4	228	229	231	230
4	232	233	235	234
4	236	237	239	238
4	240	241	243	242
4	244	245	247	246
4	248	249	251	250
4	252	253	255	254
4	256	257	259	258
4	260	261	263	262
4	264	265	267	266
4	268	269	271	270
4	272	273	275	274
4	276	277	279	278
4	280	281	283	282
4	284	285	287	286
4	288	289	291	290
4	292	293	295	294
4	296	297	299	298
4	300	301	303	302
4	304	305	307	306
4	308	309	311	310
4	312	313	315	314
4	316	317	319	318
4	320	321	323	322
4	324	325	327	326
4	328	329	331	330
4	332	333	335	334
4	336	337	339	338
4	340	341	343	342
4	344	345	347	346
4	348	349	351	350
4	352	353	355	354
4	356	357	359	358
4	360	361	363	362
4	364	365	367	366
4	368	369	371	370
4	372	373	375	374
4	376	377	379	378
4	380	381	383	382

CELL_TYPES 96
 9 9 9 9 9 9 9 9 9 9 9 9 9 9 9 9 9 9 9 9 9 9 9 9 9 9 9 9 9 9 9 9 9 9 9 9 9 9 9 9 9 9 9 9 9 9 9 9 9 9 9 9 9 9 9 9 9 9 9 9 9 9 9 9 9 9 9 9 9 9 9 9 9 9 9 9 9 9 9 9 9 9 9 9 9 9 9 9 9 9 9 9 9 9 9 9
POINT_DATA 384
SCALARS phi double 1
LOOKUP_TABLE default
0.25 -0.506383 0.25 -0.534972 0.5 0.25 0.5 0.25 0.75 0.5 0.75 0.5 0.821485 0.75 0.863451 0.75 0.25 -0.495313 0.25 -0.506383 0.5 0.25 0.5 0.25 0.75 0.5 0.75 0.5 0.813796 0.75 0.821485 0.75 0.25 -0.506383 0.25 -0.495313 0.5 0.25 0.5 0.25 0.75 0.5 0.75 0.5 0.821485 0.75 0.813796 0.75 0.25 -0.534972 0.25 -0.506383 0.5 0.25 0.5 0.25 0.75 0.5 0.75 0.5 0.863451 0.75 0.821485 0.75 0.25 0.25 -0.534972 -0.506383 0.25 0.25 -0.506383 -0.495313 0.25 0.25 -0.495313 -0.506383 0.25 0.25 -0.506383 -0.534972 0.5 0.5 0.25 0.25 0.5 0.5 0.25 0.25 0.5 0.5 0.25 0.25 0.5 0.5 0.25 0.25 0.75 0.75 0.5 0.5 0.75 0.75 0.5 0.5 0.75 0.75 0.5 0.5 0.75 0.75 0.5 0.5 0.863451 0.821485 0.75 0.75 0.821485 0.813796 0.75 0.75 0.813796 0.821485 0.75 0.75 0.821485 0.863451 0.75 0.75 0.25 -0.506383 0.25 -0.534972 0.25 -0.495313 0.25 -0.506383 0.25 -0.506383 0.25 -0.495313 0.25 -0.534972 0.25 -0.506383 0.5 0.25 0.5 0.25 0.5 0.25 0.5 0.25 0.5 0.25 0.5 0.25 0.5 0.25 0.5 0.25 0.75 0.5 0.75 0.5 0.75 0.5 0.75 0.5 0.75 0.5 0.75 0.5 0.75 0.5 0.75 0.5 0.821485 0.75 0.863451 0.75 0.813796 0.75 0.821485 0.75 0.821485 0.75 0.813796 0.75 0.863451 0.75 0.821485 0.75 0.821485 0.863451 0.897534 0.821485 0.813796 0.821485 0.871454 0.897534 0.821485 0.813796 0.897534 0.871454 0.863451 0.821485 0.821485 0.897534 0.897534 0.821485 0.871454 0.813796 0.871454 0.897534 0.825399 0.871454 0.897534 0.871454 0.871454 0.825399 0.821485 0.897534 0.813796 0.871454 0.871454 0.813796 0.897534 0.821485 0.825399 0.871454 0.871454 0.897534 0.871454 0.825399 0.897534 0.871454 0.813796 0.871454 0.821485 0.897534 0.897534 0.821485 0.821485 0.863451 0.871454 0.897534 0.813796 0.821485 0.897534 0.871454 0.821485 0.813796 0.821485 0.897534 0.863451 0.821485 0.821485 0.863451 0.75 0.75 0.813796 0.821485 0.75 0.75 0.821485 0.813796 0.75 0.75 0.863451 0.821485 0.75 0.75 0.75 0.75 0.5 0.5 0.75 0.75 0.5 0.5 0.75 0.75 0.5 0.5 0.75 0.75 0.5 0.5 0.5 0.5 0.25 0.25 0.5 0.5 0.25 0.25 0.5 0.5 0.25 0.25 0.5 0.5 0.25 0.25 0.25 0.25 -0.506383 -0.534972 0.25 0.25 -0.495313 -0.506383 0.25 0.25 -0.506383 -0.495313 0.25 0.25 -0.534972 -0.506383 -0.467658 -0.506383 -0.506383 -0.534972 -0.457272 -0.495313 -0.467658 -0.506383 -0.467658 -0.506383 -0.457272 -0.495313 -0.506383 -0.534972 -0.467658 -0.506383 -0.457272 -0.467658 -0.495313 -0.506383 -0.440185 -0.457272 -0.457272 -0.467658 -0.457272 -0.467658 -0.440185 -0.457272 -0.495313 -0.506383 -0.457272 -0.467658 -0.467658 -0.457272 -0.506383 -0.495313 -0.457272 -0.440185 -0.467658 -0.457272 -0.467658 -0.457272 -0.457272 -0.440185 -0.506383 -0.495313 -0.467658 -0.457272 -0.506383 -0.467658 -0.534972 -0.506383 -0.495313 -0.457272 -0.506383 -0.467658 -0.506383 -0.467658 -0.495313 -0.457272 -0.534972 -0.506383 -0.506383 -0.467658 
SCALARS phi_n double 1
LOOKUP_TABLE default
-0.138286 -1 -0.281142 -1 -0.00845455 -0.138286 -0.374368 -0.281142 0.186067 -0.00845455 -0.607903 -0.374368 1 0.186067 1 -0.607903 -0.127704 -1 -0.138286 -1 0.0600939 -0.127704 -0.00845455 -0.138286 0.330855 0.0600939 0.186067 -0.00845455 1 0.330855 1 0.186067 -0.138286 -1 -0.127704 -1 -0.00845455 -0.138286 0.0600939 -0.127704 0.186067 -0.00845455 0.330855 0.0600939 1 0.186067 1 0.330855 -0.281142 -1 -0.138286 -1 -0.374368 -0.281142 -0.00845455 -0.138286 -0.607903 -0.374368 0.186067 -0.00845455 1 -0.607903 1 0.186067 -0.281142 -0.138286 -1 -1 -0.138286 -0.127704 -1 -1 -0.127704 -0.138286 -1 -1 -0.138286 -0.281142 -1 -1 -0.374368 -0.00845455 -0.281142 -0.138286 -0.00845455 0.0600939 -0.138286 -0.127704 0.0600939 -0.00845455 -0.127704 -0.138286 -0.00845455 -0.374368 -0.138286 -0.281142 -0.607903 0.186067 -0.374368 -0.00845455 0.186067 0.330855 -0.00845455 0.0600939 0.330855 0.186067 0.0600939 -0.00845455 0.186067 -0.607903 -0.00845455 -0.374368 1 1 -0.607903 0.186067 1 1 0.186067 0.330855 1 1 0.330855 0.186067 1 1 0.186067 -0.607903 -0.138286 -1 -0.281142 -1 -0.127704 -1 -0.138286 -1 -0.138286 -1 -0.127704 -1 -0.281142 -1 -0.138286 -1 -0.00845455 -0.138286 -0.374368 -0.281142 0.0600939 -0.127704 -0.00845455 -0.138286 -0.00845455 -0.138286 0.0600939 -0.127704 -0.374368 -0.281142 -0.00845455 -0.138286 0.186067 -0.00845455 -0.607903 -0.374368 0.330855 0.0600939 0.186067 -0.00845455 0.186067 -0.00845455 0.330855 0.0600939 -0.607903 -0.374368 0.186067 -0.00845455 1 0.186067 1 -0.607903 1 0.330855 1 0.186067 1 0.186067 1 0.330855 1 -0.607903 1 0.186067 1 1 1 1 1 1 1 1 1 1 1 1 1 1 1 1 1 1 1 1 1 1 1 1 1 1 1 1 1 1 1 1 1 1 1 1 1 1 1 1 1 1 1 1 1 1 1 1 1 1 1 1 1 1 1 1 1 1 1 1 1 1 1 1 1 1 0.186067 -0.607903 1 1 0.330855 0.186067 1 1 0.186067 0.330855 1 1 -0.607903 0.186067 0.186067 -0.607903 -0.00845455 -0.374368 0.330855 0.186067 0.0600939 -0.00845455 0.186067 0.330855 -0.00845455 0.0600939 -0.607903 0.186067 -0.374368 -0.00845455 -0.00845455 -0.374368 -0.138286 -0.281142 0.0600939 -0.00845455 -0.127704 -0.138286 -0.00845455 0.0600939 -0.138286 -0.127704 -0.374368 -0.00845455 -0.281142 -0.138286 -0.138286 -0.281142 -1 -1 -0.127704 -0.138286 -1 -1 -0.138286 -0.127704 -1 -1 -0.281142 -0.138286 -1 -1 -1 -1 -1 -1 -1 -1 -1 -1 -1 -1 -1 -1 -1 -1 -1 -1 -1 -1 -1 -1 -1 -1 -1 -1 -1 -1 -1 -1 -1 -1 -1 -1 -1 -1 -1 -1 -1 -1 -1 -1 -1 -1 -1 -1 -1 -1 -1 -1 -1 -1 -1 -1 -1 -1 -1 -1 -1 -1 -1 -1 -1 -1 -1 -1 
SCALARS alpha double 1
LOOKUP_TABLE default
0.500003 0.250001 0.250001 0.125 0.500002 0.500003 0.25 0.250001 0.500003 0.500002 0.250001 0.25 0.250001 0.500003 0.125 0.250001 0.500002 0.25 0.500003 0.250001 0.5 0.500002 0.500002 0.500003 0.500002 0.5 0.500003 0.500002 0.25 0.500002 0.250001 0.500003 0.500003 0.250001 0.500002 0.25 0.500002 0.500003 0.5 0.500002 0.500003 0.500002 0.500002 0.5 0.250001 0.500003 0.25 0.500002 0.250001 0.125 0.500003 0.250001 0.25 0.250001 0.500002 0.500003 0.250001 0.25 0.500003 0.500002 0.125 0.250001 0.250001 0.500003 0.250001 0.500003 0.125 0.250001 0.500003 0.500002 0.250001 0.25 0.500002 0.500003 0.25 0.250001 0.500003 0.250001 0.250001 0.125 0.25 0.500002 0.250001 0.500003 0.500002 0.5 0.500003 0.500002 0.5 0.500002 0.500002 0.500003 0.500002 0.25 0.500003 0.250001 0.250001 0.500003 0.25 0.500002 0.500003 0.500002 0.500002 0.5 0.500002 0.500003 0.5 0.500002 0.500003 0.250001 0.500002 0.25 0.125 0.250001 0.250001 0.500003 0.250001 0.25 0.500003 0.500002 0.25 0.250001 0.500002 0.500003 0.250001 0.125 0.500003 0.250001 0.500003 0.250001 0.250001 0.125 0.500002 0.25 0.500003 0.250001 0.500003 0.250001 0.500002 0.25 0.250001 0.125 0.500003 0.250001 0.500002 0.500003 0.25 0.250001 0.5 0.500002 0.500002 0.500003 0.500002 0.500003 0.5 0.500002 0.25 0.250001 0.500002 0.500003 0.500003 0.500002 0.250001 0.25 0.500002 0.5 0.500003 0.500002 0.500003 0.500002 0.500002 0.5 0.250001 0.25 0.500003 0.500002 0.250001 0.500003 0.125 0.250001 0.25 0.500002 0.250001 0.500003 0.250001 0.500003 0.25 0.500002 0.125 0.250001 0.250001 0.500003 0.250001 0.125 0.500003 0.250001 0.25 0.250001 0.500002 0.500003 0.250001 0.25 0.500003 0.500002 0.125 0.250001 0.250001 0.500003 0.500003 0.250001 0.500002 0.25 0.500002 0.500003 0.5 0.500002 0.500003 0.500002 0.500002 0.5 0.250001 0.500003 0.25 0.500002 0.500002 0.25 0.500003 0.250001 0.5 0.500002 0.500002 0.500003 0.500002 0.5 0.500003 0.500002 0.25 0.500002 0.250001 0.500003 0.500003 0.250001 0.250001 0.125 0.500002 0.500003 0.25 0.250001 0.500003 0.500002 0.250001 0.25 0.250001 0.500003 0.125 0.250001 0.250001 0.125 0.500003 0.250001 0.25 0.250001 0.500002 0.500003 0.250001 0.25 0.500003 0.500002 0.125 0.250001 0.250001 0.500003 0.500003 0.250001 0.500002 0.25 0.500002 0.500003 0.5 0.500002 0.500003 0.500002 0.500002 0.5 0.250001 0.500003 0.25 0.500002 0.500002 0.25 0.500003 0.250001 0.5 0.500002 0.500002 0.500003 0.500002 0.5 0.500003 0.500002 0.25 0.500002 0.250001 0.500003 0.500003 0.250001 0.250001 0.125 0.500002 0.500003 0.25 0.250001 0.500003 0.500002 0.250001 0.25 0.250001 0.500003 0.125 0.250001 0.500003 0.250001 0.250001 0.125 0.500002 0.25 0.500003 0.250001 0.500003 0.250001 0.500002 0.25 0.250001 0.125 0.500003 0.250001 0.500002 0.500003 0.25 0.250001 0.5 0.500002 0.500002 0.500003 0.500002 0.500003 0.5 0.500002 0.25 0.250001 0.500002 0.500003 0.500003 0.500002 0.250001 0.25 0.500002 0.5 0.500003 0.500002 0.500003 0.500002 0.500002 0.5 0.250001 0.25 0.500003 0.500002 0.250001 0.500003 0.125 0.250001 0.25 0.500002 0.250001 0.500003 0.250001 0.500003 0.25 0.500002 0.125 0.250001 0.250001 0.500003 
SCALARS boundary_type double 1
LOOKUP_TABLE default
1 0 1 0 1 1 1 1 1 1 1 1 0 1 0 1 1 0 1 0 1 1 1 1 1 1 1 1 0 1 0 1 1 0 1 0 1 1 1 1 1 1 1 1 0 1 0 1 1 0 1 0 1 1 1 1 1 1 1 1 0 1 0 1 1 1 0 0 1 1 0 0 1 1 0 0 1 1 0 0 1 1 1 1 1 1 1 1 1 1 1 1 1 1 1 1 1 1 1 1 1 1 1 1 1 1 1 1 1 1 1 1 0 0 1 1 0 0 1 1 0 0 1 1 0 0 1 1 1 0 1 0 1 0 1 0 1 0 1 0 1 0 1 0 1 1 1 1 1 1 1 1 1 1 1 1 1 1 1 1 1 1 1 1 1 1 1 1 1 1 1 1 1 1 1 1 0 1 0 1 0 1 0 1 0 1 0 1 0 1 0 1 0 0 0 0 0 0 0 0 0 0 0 0 0 0 0 0 0 0 0 0 0 0 0 0 0 0 0 0 0 0 0 0 0 0 0 0 0 0 0 0 0 0 0 0 0 0 0 0 0 0 0 0 0 0 0 0 0 0 0 0 0 0 0 0 0 0 1 1 0 0 1 1 0 0 1 1 0 0 1 1 1 1 1 1 1 1 1 1 1 1 1 1 1 1 1 1 1 1 1 1 1 1 1 1 1 1 1 1 1 1 1 1 1 1 0 0 1 1 0 0 1 1 0 0 1 1 0 0 0 0 0 0 0 0 0 0 0 0 0 0 0 0 0 0 0 0 0 0 0 0 0 0 0 0 0 0 0 0 0 0 0 0 0 0 0 0 0 0 0 0 0 0 0 0 0 0 0 0 0 0 0 0 0 0 0 0 0 0 0 0 0 0 
SCALARS phi_exact double 1
LOOKUP_TABLE default
0.25 0 0.25 0 0.5 0.25 0.5 0.25 0.75 0.5 0.75 0.5 1 0.75 1 0.75 0.25 0 0.25 0 0.5 0.25 0.5 0.25 0.75 0.5 0.75 0.5 1 0.75 1 0.75 0.25 0 0.25 0 0.5 0.25 0.5 0.25 0.75 0.5 0.75 0.5 1 0.75 1 0.75 0.25 0 0.25 0 0.5 0.25 0.5 0.25 0.75 0.5 0.75 0.5 1 0.75 1 0.75 0.25 0.25 0 0 0.25 0.25 0 0 0.25 0.25 0 0 0.25 0.25 0 0 0.5 0.5 0.25 0.25 0.5 0.5 0.25 0.25 0.5 0.5 0.25 0.25 0.5 0.5 0.25 0.25 0.75 0.75 0.5 0.5 0.75 0.75 0.5 0.5 0.75 0.75 0.5 0.5 0.75 0.75 0.5 0.5 1 1 0.75 0.75 1 1 0.75 0.75 1 1 0.75 0.75 1 1 0.75 0.75 0.25 0 0.25 0 0.25 0 0.25 0 0.25 0 0.25 0 0.25 0 0.25 0 0.5 0.25 0.5 0.25 0.5 0.25 0.5 0.25 0.5 0.25 0.5 0.25 0.5 0.25 0.5 0.25 0.75 0.5 0.75 0.5 0.75 0.5 0.75 0.5 0.75 0.5 0.75 0.5 0.75 0.5 0.75 0.5 1 0.75 1 0.75 1 0.75 1 0.75 1 0.75 1 0.75 1 0.75 1 0.75 1 1 1 1 1 1 1 1 1 1 1 1 1 1 1 1 1 1 1 1 1 1 1 1 1 1 1 1 1 1 1 1 1 1 1 1 1 1 1 1 1 1 1 1 1 1 1 1 1 1 1 1 1 1 1 1 1 1 1 1 1 1 1 1 1 1 0.75 0.75 1 1 0.75 0.75 1 1 0.75 0.75 1 1 0.75 0.75 0.75 0.75 0.5 0.5 0.75 0.75 0.5 0.5 0.75 0.75 0.5 0.5 0.75 0.75 0.5 0.5 0.5 0.5 0.25 0.25 0.5 0.5 0.25 0.25 0.5 0.5 0.25 0.25 0.5 0.5 0.25 0.25 0.25 0.25 0 0 0.25 0.25 0 0 0.25 0.25 0 0 0.25 0.25 0 0 0 0 0 0 0 0 0 0 0 0 0 0 0 0 0 0 0 0 0 0 0 0 0 0 0 0 0 0 0 0 0 0 0 0 0 0 0 0 0 0 0 0 0 0 0 0 0 0 0 0 0 0 0 0 0 0 0 0 0 0 0 0 0 0 
SCALARS phi_n_exact double 1
LOOKUP_TABLE default
0 -1 0 -1 0 0 0 0 0 0 0 0 1 0 1 0 0 -1 0 -1 0 0 0 0 0 0 0 0 1 0 1 0 0 -1 0 -1 0 0 0 0 0 0 0 0 1 0 1 0 0 -1 0 -1 0 0 0 0 0 0 0 0 1 0 1 0 0 0 -1 -1 0 0 -1 -1 0 0 -1 -1 0 0 -1 -1 0 0 0 0 0 0 0 0 0 0 0 0 0 0 0 0 0 0 0 0 0 0 0 0 0 0 0 0 0 0 0 0 1 1 0 0 1 1 0 0 1 1 0 0 1 1 0 0 0 -1 0 -1 0 -1 0 -1 0 -1 0 -1 0 -1 0 -1 0 0 0 0 0 0 0 0 0 0 0 0 0 0 0 0 0 0 0 0 0 0 0 0 0 0 0 0 0 0 0 0 1 0 1 0 1 0 1 0 1 0 1 0 1 0 1 0 1 1 1 1 1 1 1 1 1 1 1 1 1 1 1 1 1 1 1 1 1 1 1 1 1 1 1 1 1 1 1 1 1 1 1 1 1 1 1 1 1 1 1 1 1 1 1 1 1 1 1 1 1 1 1 1 1 1 1 1 1 1 1 1 1 1 0 0 1 1 0 0 1 1 0 0 1 1 0 0 0 0 0 0 0 0 0 0 0 0 0 0 0 0 0 0 0 0 0 0 0 0 0 0 0 0 0 0 0 0 0 0 0 0 -1 -1 0 0 -1 -1 0 0 -1 -1 0 0 -1 -1 -1 -1 -1 -1 -1 -1 -1 -1 -1 -1 -1 -1 -1 -1 -1 -1 -1 -1 -1 -1 -1 -1 -1 -1 -1 -1 -1 -1 -1 -1 -1 -1 -1 -1 -1 -1 -1 -1 -1 -1 -1 -1 -1 -1 -1 -1 -1 -1 -1 -1 -1 -1 -1 -1 -1 -1 -1 -1 -1 -1 -1 -1 -1 -1 
