# vtk DataFile Version 3.0
#This file was generated by the deal.II library on 2025/2/7 at 12:29:16
ASCII
DATASET UNSTRUCTURED_GRID

POINTS 96 double
0.5 0.5 0
0 0.5 0
0.5 1 0
0 1 0
1 0.5 0
0.5 0.5 0
1 1 0
0.5 1 0
0.5 0 0
0 0 0
0.5 0.5 0
0 0.5 0
1 0 0
0.5 0 0
1 0.5 0
0.5 0.5 0
0.5 0 1
0.5 0.5 1
0 0 1
0 0.5 1
0.5 0.5 1
0.5 1 1
0 0.5 1
0 1 1
1 0 1
1 0.5 1
0.5 0 1
0.5 0.5 1
1 0.5 1
1 1 1
0.5 0.5 1
0.5 1 1
0.5 0 0.5
0 0 0.5
0.5 0 0
0 0 0
0.5 0 1
0 0 1
0.5 0 0.5
0 0 0.5
1 0 0.5
0.5 0 0.5
1 0 0
0.5 0 0
1 0 1
0.5 0 1
1 0 0.5
0.5 0 0.5
1 0 0.5
1 0 0
1 0.5 0.5
1 0.5 0
1 0 1
1 0 0.5
1 0.5 1
1 0.5 0.5
1 0.5 0.5
1 0.5 0
1 1 0.5
1 1 0
1 0.5 1
1 0.5 0.5
1 1 1
1 1 0.5
1 1 0.5
1 1 0
0.5 1 0.5
0.5 1 0
1 1 1
1 1 0.5
0.5 1 1
0.5 1 0.5
0.5 1 0.5
0.5 1 0
0 1 0.5
0 1 0
0.5 1 1
0.5 1 0.5
0 1 1
0 1 0.5
0 0.5 0.5
0 1 0.5
0 0.5 0
0 1 0
0 0.5 1
0 1 1
0 0.5 0.5
0 1 0.5
0 0 0.5
0 0.5 0.5
0 0 0
0 0.5 0
0 0 1
0 0.5 1
0 0 0.5
0 0.5 0.5

CELLS 24 120
4	0	1	3	2
4	4	5	7	6
4	8	9	11	10
4	12	13	15	14
4	16	17	19	18
4	20	21	23	22
4	24	25	27	26
4	28	29	31	30
4	32	33	35	34
4	36	37	39	38
4	40	41	43	42
4	44	45	47	46
4	48	49	51	50
4	52	53	55	54
4	56	57	59	58
4	60	61	63	62
4	64	65	67	66
4	68	69	71	70
4	72	73	75	74
4	76	77	79	78
4	80	81	83	82
4	84	85	87	86
4	88	89	91	90
4	92	93	95	94

CELL_TYPES 24
 9 9 9 9 9 9 9 9 9 9 9 9 9 9 9 9 9 9 9 9 9 9 9 9
POINT_DATA 96
SCALARS phi double 1
LOOKUP_TABLE default
0.5 0 0.5 0 1 0.5 1 0.5 0.5 0 0.5 0 1 0.5 1 0.5 0.5 0.5 0 0 0.5 0.5 0 0 1 1 0.5 0.5 1 1 0.5 0.5 0.5 0 0.5 0 0.5 0 0.5 0 1 0.5 1 0.5 1 0.5 1 0.5 1 1 1 1 1 1 1 1 1 1 1 1 1 1 1 1 1 1 0.5 0.5 1 1 0.5 0.5 0.5 0.5 0 0 0.5 0.5 0 0 0 0 0 0 0 0 0 0 0 0 0 0 0 0 0 0 
SCALARS phi_n double 1
LOOKUP_TABLE default
1.13593e-12 -0.542587 2.52226e-12 -0.313652 0.542587 1.13593e-12 0.313652 2.52226e-12 -4.6247e-13 -0.313652 1.13593e-12 -0.542587 0.313652 -4.6247e-13 0.542587 1.13593e-12 -4.62531e-13 1.13567e-12 -0.313652 -0.542587 1.13567e-12 2.52258e-12 -0.542587 -0.313652 0.313652 0.542587 -4.62531e-13 1.13567e-12 0.542587 0.313652 1.13567e-12 2.52258e-12 -1.15318e-12 -0.542587 -4.6247e-13 -0.313652 -4.62531e-13 -0.313652 -1.15318e-12 -0.542587 0.542587 -1.15318e-12 0.313652 -4.6247e-13 0.313652 -4.62531e-13 0.542587 -1.15318e-12 0.542587 0.313652 1.31911 0.542587 0.313652 0.542587 0.542587 1.31911 1.31911 0.542587 0.542587 0.313652 0.542587 1.31911 0.313652 0.542587 0.542587 0.313652 3.42472e-12 2.52226e-12 0.313652 0.542587 2.52258e-12 3.42472e-12 3.42472e-12 2.52226e-12 -0.542587 -0.313652 2.52258e-12 3.42472e-12 -0.313652 -0.542587 -1.31911 -0.542587 -0.542587 -0.313652 -0.542587 -0.313652 -1.31911 -0.542587 -0.542587 -1.31911 -0.313652 -0.542587 -0.313652 -0.542587 -0.542587 -1.31911 
SCALARS alpha double 1
LOOKUP_TABLE default
0.500006 0.250002 0.250002 0.125 0.250002 0.500006 0.125 0.250002 0.250002 0.125 0.500006 0.250002 0.125 0.250002 0.250002 0.500006 0.250002 0.500006 0.125 0.250002 0.500006 0.250002 0.250002 0.125 0.125 0.250002 0.250002 0.500006 0.250002 0.125 0.500006 0.250002 0.500006 0.250002 0.250002 0.125 0.250002 0.125 0.500006 0.250002 0.250002 0.500006 0.125 0.250002 0.125 0.250002 0.250002 0.500006 0.250002 0.125 0.500006 0.250002 0.125 0.250002 0.250002 0.500006 0.500006 0.250002 0.250002 0.125 0.250002 0.500006 0.125 0.250002 0.250002 0.125 0.500006 0.250002 0.125 0.250002 0.250002 0.500006 0.500006 0.250002 0.250002 0.125 0.250002 0.500006 0.125 0.250002 0.500006 0.250002 0.250002 0.125 0.250002 0.125 0.500006 0.250002 0.250002 0.500006 0.125 0.250002 0.125 0.250002 0.250002 0.500006 
SCALARS boundary_type double 1
LOOKUP_TABLE default
1 1 1 1 1 1 1 1 1 1 1 1 1 1 1 1 1 1 1 1 1 1 1 1 1 1 1 1 1 1 1 1 1 1 1 1 1 1 1 1 1 1 1 1 1 1 1 1 1 1 1 1 1 1 1 1 1 1 1 1 1 1 1 1 1 1 1 1 1 1 1 1 1 1 1 1 1 1 1 1 1 1 1 1 1 1 1 1 1 1 1 1 1 1 1 1 
SCALARS phi_exact double 1
LOOKUP_TABLE default
0.5 0 0.5 0 1 0.5 1 0.5 0.5 0 0.5 0 1 0.5 1 0.5 0.5 0.5 0 0 0.5 0.5 0 0 1 1 0.5 0.5 1 1 0.5 0.5 0.5 0 0.5 0 0.5 0 0.5 0 1 0.5 1 0.5 1 0.5 1 0.5 1 1 1 1 1 1 1 1 1 1 1 1 1 1 1 1 1 1 0.5 0.5 1 1 0.5 0.5 0.5 0.5 0 0 0.5 0.5 0 0 0 0 0 0 0 0 0 0 0 0 0 0 0 0 0 0 
SCALARS phi_n_exact double 1
LOOKUP_TABLE default
0 -1 0 -1 1 0 1 0 0 -1 0 -1 1 0 1 0 0 0 -1 -1 0 0 -1 -1 1 1 0 0 1 1 0 0 0 -1 0 -1 0 -1 0 -1 1 0 1 0 1 0 1 0 1 1 1 1 1 1 1 1 1 1 1 1 1 1 1 1 1 1 0 0 1 1 0 0 0 0 -1 -1 0 0 -1 -1 -1 -1 -1 -1 -1 -1 -1 -1 -1 -1 -1 -1 -1 -1 -1 -1 
