# vtk DataFile Version 3.0
#This file was generated by the deal.II library on 2025/2/3 at 16:26:05
ASCII
DATASET UNSTRUCTURED_GRID

POINTS 8216 double
-0.526313 -0.00362735 -0.850283
-0.578874 0.0658511 -0.812753
-0.490046 0.086006 -0.867443
-0.53531 0.132571 -0.834187
0.578263 -0.698471 0.421605
0.637246 -0.661063 0.396123
0.574613 -0.660523 0.48325
0.638688 -0.618835 0.457297
0.0669037 0.598465 -0.798351
-0.0196463 0.595596 -0.803044
0.0479154 0.661643 -0.748287
-0.0318717 0.656937 -0.753272
0.73314 -0.224156 0.642075
0.781126 -0.226401 0.581881
0.755962 -0.150205 0.63715
0.804367 -0.151437 0.574508
-0.913715 0.289737 -0.284918
-0.890474 0.364121 -0.272897
-0.883146 0.296659 -0.363383
-0.859694 0.374292 -0.347608
-0.754262 0.626123 -0.197632
-0.799835 0.56548 -0.201235
-0.768649 0.628524 -0.118898
-0.814869 0.564873 -0.130029
0.694717 -0.621748 0.361661
0.701228 -0.577615 0.417899
0.637246 -0.661063 0.396123
0.638688 -0.618835 0.457297
0.388553 -0.49469 0.777373
0.440363 -0.43359 0.786181
0.342952 -0.454401 0.822134
0.389477 -0.397098 0.831036
0.0423264 0.0734882 0.996397
0.126723 0.0681414 0.989595
0.0405388 0.187965 0.981339
0.130467 0.172692 0.976297
0.51682 0.274554 0.810874
0.582527 0.278182 0.763726
0.499759 0.344201 0.794837
0.566497 0.350312 0.745898
0.510807 -0.795861 -0.325085
0.495575 -0.769738 -0.40238
0.578718 -0.751672 -0.316347
0.564806 -0.72897 -0.386777
-0.0160953 -0.115642 0.993161
-0.0942005 -0.176662 0.979753
0.0176047 -0.209132 0.977729
-0.0580434 -0.245262 0.967718
-0.454382 -0.883664 -0.112584
-0.461292 -0.886707 -0.0309906
-0.524758 -0.842099 -0.124495
-0.524631 -0.850238 -0.0431006
0.429802 -0.320339 0.844188
0.415513 -0.234807 0.878757
0.34709 -0.323751 0.880178
0.336785 -0.245135 0.909112
-0.874108 0.478215 -0.0851183
-0.889572 0.456777 0.0040438
-0.831284 0.553086 -0.0553459
-0.845726 0.532315 0.0372604
0.524622 -0.734854 0.429838
0.578263 -0.698471 0.421605
0.508503 -0.70422 0.495479
0.574613 -0.660523 0.48325
-0.0154324 0.817665 0.575487
0.0141682 0.769357 0.638662
0.0631057 0.828112 0.556999
0.0931988 0.782513 0.61562
-0.0304393 -0.723684 -0.68946
-0.0519075 -0.675819 -0.735238
0.0327162 -0.696076 -0.717222
0.000184616 -0.665537 -0.746365
0.795697 0.174332 -0.580064
0.747034 0.205196 -0.632325
0.801935 0.25269 -0.541338
0.743579 0.298605 -0.598268
0.686937 -0.303453 -0.660329
0.641341 -0.355873 -0.679733
0.661143 -0.258797 -0.704211
0.598266 -0.303142 -0.741743
-0.649907 -0.515718 0.558262
-0.695038 -0.449162 0.561406
-0.67578 -0.552896 0.48747
-0.742866 -0.477995 0.468691
-0.742866 -0.477995 0.468691
-0.775115 -0.37967 0.505022
-0.805327 -0.445794 0.390789
-0.823634 -0.372692 0.427467
0.976908 0.213559 0.00655809
0.955029 0.296464 -0.00527247
0.97298 0.213459 0.08801
0.953933 0.284069 0.0965271
0.843669 0.231544 -0.484365
0.83504 0.324196 -0.444528
0.879624 0.220951 -0.42124
0.878823 0.289609 -0.379206
-0.617227 -0.241001 -0.748966
-0.650546 -0.288789 -0.702418
-0.660904 -0.176209 -0.729491
-0.696595 -0.225581 -0.681079
-0.449387 0.892964 0.0258236
-0.533101 0.84547 0.0313569
-0.459141 0.880609 0.117119
-0.527722 0.842366 0.10922
0.842827 -0.289136 0.45392
0.865301 -0.220824 0.449991
0.803621 -0.295958 0.516335
0.824679 -0.225198 0.518835
0.585619 -0.800186 0.129432
0.587964 -0.805798 0.0706232
0.638943 -0.749965 0.171188
0.645597 -0.759776 0.0771052
0.371848 0.0734882 -0.92538
0.361712 0.152828 -0.919678
0.448084 0.0724722 -0.891049
0.438382 0.153376 -0.885605
0.578718 -0.751672 -0.316347
0.564806 -0.72897 -0.386777
0.625749 -0.716326 -0.308733
0.636396 -0.680562 -0.363091
-0.684953 -0.122416 0.718229
-0.67554 -0.0451853 0.735937
-0.743403 -0.0979832 0.661627
-0.725781 -0.0199245 0.687637
-0.820276 -0.52499 0.22701
-0.857437 -0.483677 0.175667
-0.804191 -0.571227 0.164249
-0.84255 -0.527202 0.110306
0.0318565 0.717691 -0.695633
0.0479154 0.661643 -0.748287
-0.0445086 0.716945 -0.695708
-0.0318717 0.656937 -0.753272
-0.975945 -0.0592754 -0.209805
-0.983054 -0.102653 -0.151879
-0.983361 -0.016572 -0.180903
-0.993785 -0.0239367 -0.108712
0.902408 -0.359447 0.237609
0.873828 -0.426971 0.23264
0.921563 -0.355791 0.15535
0.891694 -0.432621 0.133117
-0.608449 -0.479457 0.632385
-0.649907 -0.515718 0.558262
-0.555413 -0.558069 0.616503
-0.597887 -0.576361 0.557081
-0.967571 0.241832 -0.0729712
-0.981789 0.187765 -0.0289016
-0.957936 0.286663 -0.0135266
-0.972908 0.228471 0.0353694
-0.739179 -0.293212 0.606334
-0.76054 -0.191429 0.620431
-0.794695 -0.298278 0.528669
-0.812485 -0.221741 0.539166
-0.0397624 0.611087 0.790564
-0.0942099 0.668479 0.73774
-0.112951 0.584761 0.803304
-0.177263 0.623233 0.761681
0.517277 0.0716586 -0.852813
0.448084 0.0724722 -0.891049
0.511564 0.154676 -0.845209
0.438382 0.153376 -0.885605
0.0327162 -0.696076 -0.717222
0.000184616 -0.665537 -0.746365
0.0997407 -0.649224 -0.754029
0.0178282 -0.623394 -0.781704
0.697793 0.281059 0.658855
0.755316 0.278688 0.593153
0.676462 0.353732 0.645967
0.719724 0.367255 0.58917
-0.361158 0.755282 0.546913
-0.299046 0.757322 0.580548
-0.322112 0.807957 0.493406
-0.249772 0.795671 0.551835
0.238748 -0.25921 0.935847
0.336785 -0.245135 0.909112
0.235862 -0.156355 0.959126
0.318842 -0.158685 0.93443
0.583949 -0.811749 -0.00823738
0.644047 -0.764981 -0.00263288
0.587964 -0.805798 0.0706232
0.645597 -0.759776 0.0771052
-0.0160953 -0.115642 0.993161
0.0176047 -0.209132 0.977729
0.0423264 -0.0734882 0.996397
0.0886334 -0.177581 0.980107
0.0381431 0.265398 0.963384
0.0449127 0.327457 0.943798
-0.0596059 0.27167 0.960543
-0.0363182 0.34569 0.937646
-0.721541 0.551847 0.418143
-0.709033 0.60981 0.354124
-0.76853 0.511856 0.383882
-0.769095 0.552196 0.321826
-0.600648 -0.799188 0.0228335
-0.528403 -0.847346 0.0528723
-0.626798 -0.772578 0.101231
-0.572127 -0.808848 0.135781
-0.865251 -0.108408 0.489478
-0.885115 -0.0770937 0.458942
-0.862818 -0.15631 0.480741
-0.894749 -0.141434 0.423581
-0.858804 -0.212105 -0.466334
-0.874353 -0.25397 -0.41353
-0.889658 -0.140794 -0.434379
-0.903922 -0.192548 -0.381904
-0.561388 -0.134211 0.816597
-0.484028 -0.148768 0.862314
-0.559277 -0.056303 0.827067
-0.491065 -0.0506055 0.869652
0.188669 -0.554305 -0.810648
0.11174 -0.587414 -0.801536
0.127147 -0.500651 -0.856261
0.0413667 -0.555457 -0.830516
0.0761213 -0.451128 -0.889207
-0.00110016 -0.484116 -0.875003
0.0317126 -0.398181 -0.916758
-0.0357654 -0.424632 -0.904659
0.275165 -0.343779 0.897831
0.34709 -0.323751 0.880178
0.238748 -0.25921 0.935847
0.336785 -0.245135 0.909112
-0.308131 0.476834 0.823216
-0.232031 0.472097 0.850462
-0.287752 0.543725 0.788392
-0.208087 0.541883 0.814286
-0.581096 -0.0685836 -0.81094
-0.622061 0.00125211 -0.782967
-0.526313 -0.00362735 -0.850283
-0.578874 0.0658511 -0.812753
0.843514 0.455838 -0.284069
0.882213 0.401375 -0.246167
0.843238 0.39787 -0.361454
0.880957 0.348423 -0.320181
0.178715 0.871524 0.456626
0.163311 0.901158 0.401552
0.11138 0.872525 0.475705
0.0954165 0.907514 0.409041
0.309863 -0.95015 -0.0346324
0.272531 -0.957551 -0.0939313
0.373173 -0.925814 -0.060083
0.337089 -0.929987 -0.14661
0.549435 0.830508 0.0915321
0.516809 0.855658 0.0275307
0.50922 0.852184 0.120325
0.454007 0.886177 0.0925626
-0.0586167 0.934924 -0.349974
-0.0126244 0.953686 -0.30054
0.0177954 0.919774 -0.392044
0.0321823 0.943692 -0.329255
0.484737 -0.653603 0.581235
0.407501 -0.72466 0.555708
0.508503 -0.70422 0.495479
0.443909 -0.753594 0.48481
-0.867143 -0.439446 0.234415
-0.898165 -0.395064 0.192936
-0.857437 -0.483677 0.175667
-0.891089 -0.43531 0.12832
0.217624 -0.260527 -0.94062
0.15419 -0.308698 -0.938579
0.165113 -0.165996 -0.972205
0.0939825 -0.264239 -0.959867
0.661143 -0.258797 -0.704211
0.643735 -0.218104 -0.73351
0.704998 -0.226798 -0.671967
0.673472 -0.162526 -0.721125
0.0552372 0.878658 -0.474245
0.0177954 0.919774 -0.392044
0.134502 0.88562 -0.444506
0.110641 0.923152 -0.36817
0.108214 0.723421 -0.681874
0.0934016 0.778319 -0.620883
0.181583 0.724293 -0.665152
0.166923 0.776195 -0.607995
-0.942916 -0.262821 0.204534
-0.923399 -0.246492 0.294237
-0.963244 -0.190333 0.189563
-0.951213 -0.155758 0.266335
-0.529346 -0.833208 0.159867
-0.524654 -0.820242 0.227906
-0.572127 -0.808848 0.135781
-0.595926 -0.77431 0.212875
-0.298849 -0.150373 0.942379
-0.226794 -0.14764 0.962687
-0.289773 -0.0728917 0.954316
-0.219349 -0.101334 0.97037
-0.0279844 0.700132 0.713465
0.0414694 0.721648 0.691017
-0.0594281 0.747116 0.662032
0.0141682 0.769357 0.638662
-0.768649 0.628524 -0.118898
-0.814869 0.564873 -0.130029
-0.782773 0.620975 -0.040688
-0.831284 0.553086 -0.0553459
-0.600648 -0.799188 0.0228335
-0.651898 -0.758306 -0.00116102
-0.589231 -0.806036 -0.0558002
-0.642441 -0.76333 -0.0677999
0.517277 0.0716586 -0.852813
0.511564 0.154676 -0.845209
0.58979 0.0834668 -0.803232
0.58155 0.155518 -0.798507
0.215672 -0.0773571 -0.973397
0.101062 -0.0769415 -0.9919
0.169001 -4.13933e-17 -0.985616
0.0848059 -2.07715e-17 -0.996397
-0.641716 0.735532 0.217239
-0.605151 0.786646 0.122394
-0.709401 0.688016 0.152915
-0.683555 0.72511 0.0834701
0.447973 0.268288 0.852844
0.51682 0.274554 0.810874
0.431796 0.333404 0.83809
0.499759 0.344201 0.794837
-0.459141 0.880609 0.117119
-0.527722 0.842366 0.10922
-0.463532 0.866429 0.185576
-0.520211 0.835591 0.176547
0.288659 -0.0853657 -0.953619
0.251978 -6.17168e-17 -0.967733
0.371848 -0.0734882 -0.92538
0.33314 -8.15957e-17 -0.942877
-0.348828 0.931534 -0.102778
-0.289083 0.95564 -0.0564227
-0.301418 0.939615 -0.162084
-0.241705 0.963493 -0.115149
-0.163518 -0.364784 0.916621
-0.089712 -0.335305 0.937829
-0.200974 -0.297006 0.933486
-0.132642 -0.273147 0.952784
0.0552372 0.878658 -0.474245
0.134502 0.88562 -0.444506
0.0771907 0.830952 -0.550963
0.166945 0.832263 -0.528647
0.0423264 0.0734882 0.996397
0.0405388 0.187965 0.981339
-0.0633339 0.0818432 0.994631
-0.0705109 0.192332 0.978794
-0.806613 0.550093 0.216271
-0.826514 0.486515 0.283155
-0.760228 0.595163 0.260451
-0.769095 0.552196 0.321826
0.484737 -0.653603 0.581235
0.404656 -0.627559 0.665149
0.407501 -0.72466 0.555708
[...]
POINT_DATA 8216
SCALARS phi double 1
LOOKUP_TABLE default
-0.690112 -0.662888 -0.635742 -0.618463 0.150698 0.186153 0.19867 0.238575 -0.066491 -0.113547 -0.0193642 -0.0641032 0.57553 0.568303 0.621454 0.61372 -0.454448 -0.399625 -0.474935 -0.416505 -0.162885 -0.217795 -0.129512 -0.190013 0.217315 0.270756 0.186153 0.238575 0.335618 0.396477 0.355342 0.411708 0.556106 0.592229 0.604921 0.639728 0.801124 0.812217 0.819399 0.831353 -0.30507 -0.338271 -0.244651 -0.275471 0.430712 0.354445 0.393101 0.332206 -0.725315 -0.689495 -0.745676 -0.708985 0.476825 0.529732 0.451759 0.500381 -0.240506 -0.214375 -0.166772 -0.138075 0.109803 0.150698 0.149881 0.19867 0.68886 0.711094 0.724108 0.745666 -0.721792 -0.731482 -0.690291 -0.705859 0.194982 0.159953 0.256644 0.221958 -0.138423 -0.197132 -0.150932 -0.223309 -0.303682 -0.291397 -0.370603 -0.376085 -0.376085 -0.324882 -0.430166 -0.384429 0.598513 0.623111 0.637224 0.667264 0.295424 0.357354 0.339668 0.394613 -0.803597 -0.820876 -0.783302 -0.801628 0.2347 0.171863 0.269294 0.211932 0.503805 0.547234 0.511999 0.559158 -0.0425673 -0.0736055 0.0300831 -0.018537 -0.240022 -0.202569 -0.185247 -0.146923 -0.244651 -0.275471 -0.199655 -0.203628 -0.0445703 0.0076059 -0.0898796 -0.0290342 -0.559128 -0.582723 -0.605584 -0.629723 0.0269575 -0.0193642 -0.0116359 -0.0641032 -0.622513 -0.618793 -0.590418 -0.563217 0.390285 0.339749 0.360561 0.296095 -0.22776 -0.303682 -0.24849 -0.308583 -0.399355 -0.411463 -0.3424 -0.354534 -0.213029 -0.165769 -0.282152 -0.24753 0.680944 0.656005 0.637557 0.603826 -0.131938 -0.185247 -0.0894844 -0.146923 -0.690291 -0.705859 -0.651756 -0.693635 0.818854 0.813578 0.83808 0.838074 0.470518 0.519412 0.489625 0.548867 0.457692 0.500381 0.519316 0.547293 -0.118019 -0.0617836 -0.0736055 -0.018537 0.430712 0.393101 0.482618 0.445579 0.633463 0.658084 0.586303 0.623509 0.124225 0.127451 0.0636039 0.0524635 -0.688501 -0.661438 -0.649073 -0.622597 -0.24209 -0.251633 -0.269194 -0.306301 -0.768622 -0.770926 -0.732416 -0.739187 0.0604988 0.114759 0.105743 0.16399 -0.588142 -0.638605 -0.614882 -0.672303 -0.632107 -0.68011 -0.641613 -0.682528 0.414609 0.451759 0.457692 0.500381 0.495959 0.545264 0.522182 0.574041 -0.73031 -0.701888 -0.690112 -0.662888 0.507641 0.518711 0.439827 0.4546 0.753433 0.73301 0.729805 0.705986 -0.33746 -0.389476 -0.306362 -0.369754 0.735737 0.699999 0.740864 0.716373 0.263166 0.320261 0.272763 0.32331 0.206184 0.119275 0.149881 0.0875629 -0.536087 -0.550146 -0.582723 -0.599039 -0.491761 -0.546543 -0.486544 -0.565062 -0.150932 -0.153939 -0.0968835 -0.10509 0.229825 0.272763 0.287808 0.332811 0.0748805 0.125419 0.120362 0.167561 -0.500602 -0.437827 -0.482007 -0.420318 -0.601343 -0.558495 -0.622597 -0.578681 0.246579 0.294127 0.295826 0.324843 0.692806 0.727067 0.67486 0.711094 -0.129512 -0.190013 -0.101243 -0.166772 -0.688501 -0.705682 -0.725533 -0.736786 -0.131938 -0.0894844 -0.0649876 -0.0307195 -0.417541 -0.48389 -0.408308 -0.455796 0.155527 0.151945 0.0657651 0.0625124 0.784552 0.801124 0.801645 0.819399 0.269294 0.211932 0.294236 0.245964 -0.375162 -0.357877 -0.31351 -0.304869 0.239964 0.305067 0.238057 0.303319 0.19416 0.256406 0.217753 0.273497 0.229825 0.287808 0.17859 0.23528 0.556106 0.604921 0.50657 0.550307 -0.020125 -0.0284217 0.0476926 0.0524635 0.206184 0.221123 0.119275 0.137648 -0.555212 -0.533159 -0.602244 -0.579984 0.0258807 0.0596454 0.0793233 0.114069 0.390285 0.360561 0.437909 0.407899 -0.101243 -0.166772 -0.0749669 -0.138075 0.585827 0.626266 0.550036 0.588261 0.0583513 0.129769 0.0582847 0.117504 0.287808 0.341986 0.23528 0.308521 0.35973 0.425858 0.349158 0.407509 -0.593782 -0.551234 -0.556801 -0.513683 -0.0617836 -0.00473843 -0.018537 0.0365687 0.355342 0.411708 0.381151 0.416148 -0.388594 -0.360345 -0.369754 -0.313829 0.672554 0.705986 0.64776 0.681543 -0.726342 -0.699151 -0.748106 -0.721627 0.739034 0.746003 0.756415 0.775841 -0.486544 -0.565062 -0.537418 -0.597609 -0.14851 -0.204879 -0.13178 -0.192554 0.355342 0.381151 0.297075 0.326756 -0.417541 -0.486544 -0.48389 -0.537418 0.706774 0.731671 0.727317 0.750118 0.611013 0.638009 0.580649 0.609856 -0.604834 -0.599744 -0.662308 -0.640275 -0.0445703 -0.0898796 -0.0941203 -0.165769 0.155527 0.118276 0.211724 0.172317 0.443671 0.5 0.451272 0.50657 -0.258757 -0.213029 -0.324882 -0.282152 -0.788885 -0.7552 -0.77539 -0.743022 -0.482007 -0.420318 -0.466152 -0.404254 -0.759799 -0.727012 -0.743125 -0.708348 0.0405577 0.119275 0.0876446 0.137648 0.64854 0.680355 0.630704 0.661565 -0.563926 -0.545371 -0.535456 -0.5 0.0676999 0.0365687 0.132419 0.0937994 0.178905 0.2347 0.177934 0.241948 0.216204 0.260466 0.237015 0.297075 -0.193337 -0.146848 -0.214375 -0.138075 0.64854 0.61316 0.664304 0.640001 0.715363 0.697564 0.675727 0.668495 0.266552 0.308349 0.259644 0.316875 -0.461223 -0.434005 -0.404819 -0.376556 0.272763 0.32331 0.332811 0.366428 0.611013 0.580649 0.574017 0.547293 -0.0179379 0.0607984 -0.0405566 0.0604476 -0.0879381 -0.069005 -0.0179379 -0.00320181 0.617538 0.675727 0.615867 0.668495 0.493469 0.489625 0.548784 0.548867 -0.673957 -0.637069 -0.700291 -0.663545 -0.714645 -0.679852 -0.679117 -0.646511 0.227819 0.258021 0.275995 0.307733 0.656172 0.689465 0.626266 0.669473 0.670459 0.637224 0.687784 0.667264 0.246026 0.317221 0.276024 0.344425 -0.131143 -0.092929 -0.183602 -0.125927 -0.699367 -0.726113 -0.679134 -0.690112 0.0550016 0.0076059 0.0951245 0.0530626 -0.120577 -0.0859875 -0.16324 -0.128903 0.298671 0.296095 0.264614 0.231122 -0.649632 -0.645676 -0.684205 -0.692924 -0.555212 -0.49924 -0.533159 -0.482839 -0.670202 -0.634426 -0.632375 -0.596485 -0.535456 -0.48389 -0.587813 -0.537418 0.117992 0.0793233 0.159953 0.114069 0.665479 0.655159 0.699315 0.687918 0.481428 0.435081 0.514304 0.471331 0.602158 0.587434 0.6359 0.641669 0.254624 0.31484 0.263166 0.320261 0.155527 0.211724 0.227819 0.258021 -0.291397 -0.258757 -0.376085 -0.324882 -0.257998 -0.313826 -0.269158 -0.310053 0.376763 0.389434 0.421652 0.440784 -0.399625 -0.34331 -0.416505 -0.342769 -0.259127 -0.265886 -0.202554 -0.22628 0.104682 0.169464 0.163611 0.229259 -0.533159 -0.505633 -0.579984 -0.551234 -0.704679 -0.689778 -0.732558 -0.734419 -0.434883 -0.491761 -0.407659 -0.486544 -0.378897 -0.455096 -0.377828 -0.441818 -0.31351 -0.25463 -0.34397 -0.283066 0.359544 0.392961 0.415827 0.441648 0.859406 0.846558 0.850577 0.838114 0.0449988 -0.0150086 0.111662 0.0474413 -0.394727 -0.425103 -0.338755 -0.337606 0.742576 0.772238 0.756734 0.774261 0.104682 0.0449988 0.169464 0.111662 0.523335 0.474425 0.538964 0.512496 0.164325 0.103074 0.199285 0.132419 0.863494 0.864267 0.864952 0.864839 -0.585745 -0.599385 -0.518355 -0.550103 -0.069005 -0.133307 -0.053431 -0.128864 -0.375965 -0.31586 -0.378026 -0.312833 0.169464 0.236242 0.229259 0.286394 -0.596284 -0.616798 -0.546543 -0.565062 -0.845648 -0.834451 -0.831709 -0.821919 0.324665 0.270756 0.358555 0.291654 0.0782301 0.104207 0.025995 0.055427 0.552446 0.499905 0.56496 0.530533 -0.614882 -0.672303 -0.632107 -0.68011 -0.832598 -0.835952 -0.849286 -0.850169 0.0582847 0.117504 0.0564773 0.112928 0.755167 0.762884 0.789257 0.795552 0.236242 0.295424 0.286394 0.339668 0.19416 0.162519 0.256406 0.239039 -0.200006 -0.224717 -0.25463 -0.283066 0.367851 0.315123 0.341038 0.305682 -0.493176 -0.517571 -0.453548 -0.473645 -0.561223 -0.580704 -0.498282 -0.530385 0.274008 0.206184 0.304996 0.252324 -0.25466 -0.313895 -0.224717 -0.283066 -0.392027 -0.440898 -0.383886 -0.4125 0.386213 0.448692 0.410739 0.469722 -0.377828 -0.441818 -0.378026 -0.438087 -0.853849 -0.853455 -0.862624 -0.860712 -0.458839 -0.404481 -0.498282 -0.434005 -0.129319 -0.064893 -0.0941203 -0.0336509 -0.853849 -0.862624 -0.84758 -0.857727 -0.522734 -0.458539 -0.52032 -0.467614 -0.161436 -0.11914 -0.111316 -0.0405566 -0.200006 -0.140492 -0.224717 -0.166973 -0.845648 -0.831709 -0.847934 -0.83483 -0.623061 -0.568514 -0.612077 -0.567948 0.550307 0.586303 0.463273 0.537437 0.046727 0.102063 -0.00151712 0.0549965 -0.587813 -0.537418 -0.637472 -0.597609 -0.0028411 -0.0550535 -0.00058124 -0.0760377 -0.273896 -0.288729 -0.189163 -0.212108 -0.522734 -0.52032 -0.565214 -0.568514 -0.435759 -0.395825 -0.492317 -0.437827 -0.556514 -0.546157 -0.491267 -0.478045 -0.261425 -0.261516 -0.345356 -0.333985 -0.589835 -0.584878 -0.624405 -0.637206 -0.577576 -0.527295 -0.570337 -0.534042 -0.287464 -0.345639 -0.25466 -0.313895 -0.166968 -0.217828 -0.216282 -0.267246 -0.0769831 -0.0147174 -0.0722791 -0.00608626 -0.375965 -0.378026 -0.436599 -0.438087 -0.222181 -0.214858 -0.279427 -0.274039 -0.0572041 -0.00151712 -0.103645 -0.0548047 0.376002 0.425825 0.341846 0.392961 -0.129319 -0.0941203 -0.213029 -0.165769 -0.470989 -0.435759 -0.500363 -0.492317 0.586303 0.623509 0.537437 0.585827 -0.00151712 0.0549965 -0.0548047 -0.00058124 -0.524237 -0.466152 -0.513278 -0.454841 -0.793339 -0.776995 -0.789679 -0.765355 -0.538455 -0.524237 -0.589835 -0.584878 -0.0879381 -0.0179379 -0.11914 -0.0405566 -0.602571 -0.582133 -0.556514 -0.546157 0.10345 0.132534 0.150698 0.186153 -0.809983 -0.804633 -0.790606 -0.784474 -0.142624 -0.0780801 -0.0985344 -0.0441202 -0.577576 -0.570337 -0.626357 -0.617259 0.780964 0.764127 0.804295 0.787153 -0.0780801 -0.0550535 -0.0441202 0.000821187 -0.375502 -0.349736 -0.433187 -0.403904 -0.261516 -0.252868 -0.333985 -0.324303 -0.462662 -0.513159 -0.416197 -0.468382 -0.725175 -0.695051 -0.708718 -0.679329 -0.853455 -0.845648 -0.860712 -0.847934 -0.454841 -0.392529 -0.447783 -0.384088 0.186659 0.124225 0.18513 0.113599 0.766634 0.763657 0.796003 0.791543 0.791543 0.780964 0.815329 0.804295 -0.166968 -0.216282 -0.11006 -0.159157 0.64131 0.671565 0.655159 0.687918 0.304996 0.252324 0.341846 0.290352 0.046727 0.089954 0.102063 0.144012 0.0200255 0.0783758 -0.0137182 0.0663663 -0.749075 -0.736149 -0.705893 -0.701923 -0.602571 -0.627449 -0.582133 -0.590067 -0.835952 -0.84758 -0.850169 -0.857727 -0.760096 -0.733196 -0.73031 -0.701888 -0.376888 -0.436026 -0.396841 -0.44986 0.275775 0.31213 0.325652 0.360234 -0.432226 -0.441594 -0.491267 -0.498139 0.762884 0.766634 0.795552 0.796003 0.360234 0.404685 0.391993 0.432109 -0.103645 -0.154711 -0.139463 -0.184654 0.14115 0.18004 0.192528 0.231122 0.102063 0.144012 0.157006 0.197581 0.275775 0.325652 0.245397 0.296886 0.772891 0.807045 0.761942 0.794181 -0.205787 -0.263191 -0.161436 -0.204176 -0.287464 -0.223309 -0.318801 -0.274036 -0.257998 -0.209139 -0.238866 -0.183476 -0.362484 -0.299299 -0.336658 -0.276458 -0.320927 -0.28111 -0.300201 -0.240506 -0.439346 -0.447783 -0.377004 -0.384088 -0.145017 -0.208336 -0.214858 -0.274039 -0.415472 -0.396841 -0.472963 -0.44986 -0.378897 -0.415472 -0.455096 -0.472963 -0.448817 -0.50551 -0.441594 -0.498139 0.482776 0.53637 0.463574 0.515149 -0.336658 -0.276458 -0.314708 -0.257837 -0.375502 -0.332242 -0.349736 -0.302233 -0.863004 -0.860712 -0.849748 -0.847934 0.216204 0.148659 0.260466 0.188025 -0.383875 -0.32957 -0.406291 -0.352788 -0.733196 -0.701681 -0.701888 -0.670202 -0.126066 -0.108875 -0.192319 -0.183999 -0.377004 -0.312315 -0.367773 -0.3072 0.454598 0.433767 0.509598 0.497405 0.376651 0.391993 0.442124 0.432109 -0.34331 -0.339265 -0.2763 -0.300201 -0.406291 -0.352788 -0.420773 -0.364699 0.217951 0.158577 0.245397 0.189355 0.216204 0.237015 0.148659 0.159415 -0.0572041 -0.103645 -0.126557 -0.139463 0.0981459 0.132484 0.158577 0.189355 -0.849286 -0.850169 -0.861902 -0.857727 -0.352086 -0.306301 -0.38119 -0.345356 0.186659 0.251711 0.183072 0.232825 -0.701888 -0.670202 -0.662888 -0.632375 -0.344396 -0.318801 -0.27133 -0.274036 0.209451 0.157006 0.248977 0.197581 0.089954 0.12286 0.144012 0.177796 -0.518355 -0.550103 -0.456542 -0.503458 0.491249 0.501402 0.543297 0.570312 0.217951 0.245397 0.274192 0.296886 -0.214359 -0.266054 -0.251654 -0.295693 -0.238866 -0.183476 -0.211949 -0.154207 -0.701681 -0.665692 -0.670202 -0.634426 0.237015 0.267343 0.159415 0.210795 -0.659414 -0.645676 -0.628914 -0.605389 -0.11006 -0.159157 -0.0513544 -0.0985344 -0.618427 -0.65103 -0.586254 -0.619143 0.454598 0.509598 0.476825 0.51594 -0.43322 -0.487652 -0.420773 -0.475301 -0.781444 -0.760096 -0.753759 -0.73031 -0.659414 -0.628914 -0.689387 -0.67123 0.538474 0.490303 0.563145 0.515149 -0.725673 -0.688996 -0.701681 -0.665692 0.0233411 0.0799054 -0.0243273 0.0295753 -0.544882 -0.611253 -0.525247 -0.596596 0.833094 0.840596 0.850577 0.857245 -0.161436 -0.204176 -0.11914 -0.189163 0.0692438 0.0446397 0.00964176 -0.0165078 -0.649632 -0.611253 -0.645676 -0.594705 -0.725673 -0.743022 -0.688996 -0.705126 0.0226376 0.0446397 0.0826897 0.106083 0.267343 0.294789 0.210795 0.22767 0.0405577 0.0166188 0.119275 0.0875629 0.475488 0.491249 0.522279 0.543297 -0.0895321 -0.155375 -0.0787716 -0.137969 -0.0617836 -0.11006 -0.00473843 -0.0513544 -0.0943602 -0.0751033 -0.0356941 -0.0165078 -0.525247 -0.458852 -0.472508 -0.423068 -0.688996 -0.705126 -0.647563 -0.66263 -0.0630576 -0.126557 -0.108279 -0.167193 -0.364265 -0.344396 -0.306522 -0.27133 0.501402 0.499814 0.570312 0.556557 -0.00199864 0.0226376 0.0585616 0.0826897 -0.645676 -0.594705 -0.605389 -0.581661 0.373887 0.438246 0.403522 0.464604 -0.715504 -0.672246 -0.705126 -0.66263 -0.544882 -0.525247 -0.50029 -0.472508 -0.723961 -0.68137 -0.715504 -0.672246 -0.14851 -0.13178 -0.0943602 -0.0751033 -0.760742 -0.770263 -0.729385 -0.752565 -0.0879381 -0.11914 -0.134968 -0.189163 0.689465 0.722182 0.669473 0.709624 0.566749 0.583723 0.596225 0.623219 -0.835952 -0.817472 -0.84758 -0.830421 -0.597533 -0.538473 -0.584909 -0.551928 -0.68137 -0.635375 -0.672246 -0.626357 0.527811 0.538474 0.566749 0.583723 0.118566 0.0585616 0.139788 0.0826897 -0.7552 -0.715504 -0.743022 -0.705126 0.478329 0.535376 0.52077 0.576066 -0.153938 -0.198486 -0.14851 -0.204879 -0.50029 -0.472508 -0.4904 -0.439648 -0.768479 -0.736786 -0.767918 -0.738604 -0.735661 -0.760398 -0.777853 -0.792268 -0.487652 -0.505132 -0.538473 -0.551928 0.308089 0.373887 0.34058 0.403522 0.0785543 0.0377008 0.131272 0.0889486 -0.337606 -0.349817 -0.272947 -0.279451 0.403522 0.464604 0.423713 0.482029 -0.198486 -0.272947 -0.204879 -0.279451 0.531762 0.541833 0.57616 0.591988 -0.488396 -0.513787 -0.447533 -0.451676 -0.513787 -0.548115 -0.451676 -0.508155 -0.737102 -0.760742 -0.714676 -0.729385 -0.737102 -0.714676 -0.693635 -0.672303 0.570312 0.556557 0.622143 0.607158 0.118566 0.139788 0.178353 0.193845 0.575876 0.547253 0.609031 0.566232 -0.734419 -0.735661 -0.766587 -0.777853 -0.0575472 -0.028699 0.0012786 0.032074 -0.479115 -0.511684 -0.530146 -0.559128 -0.00199864 0.0585616 -0.028699 0.032074 0.0785543 0.131272 0.125419 0.17859 0.240086 0.178353 0.250694 0.193845 0.685146 0.70155 0.656172 0.689465 0.575876 0.577313 0.507641 0.518711 0.652002 0.611765 0.615836 0.595531 0.622143 0.607158 0.649588 0.650364 -0.375162 -0.417541 -0.357877 -0.408308 0.752433 0.725112 0.784923 0.761743 0.609031 0.625748 0.65436 0.666089 0.725112 0.70836 0.761743 0.746233 0.175883 0.229825 0.131272 0.17859 -0.599385 -0.647037 -0.615726 -0.658858 0.0877343 0.12312 0.0177748 0.0524623 -0.597533 -0.584909 -0.64364 -0.613101 -0.0313121 -0.0120013 0.0433665 0.0625124 0.836673 0.850395 0.831353 0.847118 0.518711 0.533103 0.4546 0.469803 -0.0425673 0.0300831 -0.0787716 0.00195126 0.840804 0.85758 0.840596 0.857245 0.815364 0.797186 0.808081 0.785743 0.751452 0.779186 0.751355 0.790371 0.850395 0.859802 0.847118 0.857456 0.148179 0.207132 0.182425 0.245023 0.0300831 0.103074 0.00195126 0.0718069 0.12312 0.117338 0.0524623 0.0723496 0.0124492 0.0810193 -0.00553838 0.0798612 -0.760398 -0.778461 -0.792268 -0.807109 0.245023 0.306431 0.273315 0.339459 0.00340329 0.055427 0.0377008 0.0889486 0.748893 0.76506 0.751452 0.779186 0.105284 0.0477713 0.117338 0.0723496 0.847118 0.857456 0.845192 0.85758 -0.450816 -0.479115 -0.505132 -0.530146 0.0124492 -0.00553838 -0.0533493 -0.0691567 -0.0934287 -0.0215122 -0.0777042 -0.00719822 0.171526 0.232302 0.176413 0.246579 -0.293363 -0.256007 -0.248126 -0.208908 0.828092 0.814399 0.839303 0.826399 0.273315 0.339459 0.294647 0.363567 0.172902 0.166466 0.105284 0.0889783 -0.0777042 -0.00719822 -0.0537929 0.0166188 0.166451 0.0717534 0.166466 0.0889783 -0.0433699 -0.0537929 0.0405577 0.0166188 -0.13237 -0.0533493 -0.129864 -0.0691567 0.294789 0.36111 0.341038 0.392785 -0.817472 -0.792268 -0.830421 -0.807109 0.367851 0.341038 0.41831 0.392785 0.205588 0.224701 0.142672 0.153307 0.70155 0.736431 0.689465 0.722182 0.171526 0.164314 0.232302 0.217753 0.384638 0.435461 0.374174 0.463273 0.523335 0.576354 0.497405 0.572107 0.685146 0.714743 0.70155 0.736431 0.798453 0.819407 0.814399 0.826399 0.722182 0.753525 0.709624 0.731063 0.687734 0.708874 0.714743 0.751355 0.789257 0.795552 0.819407 0.822326 -0.332376 -0.293363 -0.296779 -0.248126 0.0810193 0.153307 0.0798612 0.171742 -0.753759 -0.73031 -0.726113 -0.690112 0.148659 0.110681 0.188025 0.129368 -0.13237 -0.200923 -0.175527 -0.221141 -0.459151 -0.404609 -0.425747 -0.394328 0.801191 0.816938 0.790499 0.813578 0.306431 0.374174 0.339459 0.405384 0.177639 0.192831 0.110198 0.133542 0.523335 0.497405 0.474425 0.441648 0.833094 0.850577 0.820192 0.838114 0.0727544 0.0876446 0.129368 0.137648 0.753525 0.78634 0.731063 0.78091 0.287669 0.321524 0.338009 0.357926 0.192831 0.204205 0.133542 0.150798 0.244998 0.192528 0.296095 0.231122 0.734214 0.731063 0.772891 0.78091 0.491249 0.436015 0.501402 0.442052 0.0131314 0.0405577 0.0727544 0.0876446 0.814493 0.815364 0.830257 0.838793 -0.0784714 -0.0489816 -0.130732 -0.0998881 0.115607 0.0783758 0.145087 0.111213 0.540602 0.556106 0.5 0.50657 0.671565 0.715259 0.687918 0.72908 0.833094 0.820192 0.807045 0.794181 0.762559 0.778062 0.784552 0.801124 0.440784 0.463574 0.490303 0.515149 0.293709 0.244998 0.339749 0.296095 0.293709 0.339749 0.340329 0.365588 0.848945 0.855399 0.850395 0.859802 0.773194 0.790499 0.795235 0.813578 0.376002 0.409477 0.425825 0.456059 -0.818278 -0.803597 -0.797017 -0.781444 0.450022 0.475386 0.409477 0.456059 -0.649073 -0.597533 -0.674759 -0.64364 -0.623061 -0.612077 -0.660136 -0.661438 -0.250623 -0.200336 -0.194009 -0.14502 0.21811 0.264614 0.18004 0.231122 0.3657 0.362508 0.303246 0.298843 0.294647 0.363567 0.317221 0.386213 -0.250623 -0.194009 -0.299523 -0.242616 -0.260945 -0.323291 -0.208336 -0.274039 0.820192 0.801231 0.794181 0.776357 -0.599385 -0.615726 -0.550103 -0.574404 0.680355 0.694242 0.706383 0.722802 -0.0425673 -0.0787716 -0.0736055 -0.124623 -0.332376 -0.381101 -0.354624 -0.394132 0.566622 0.56496 0.518722 0.530533 0.778062 0.788886 0.801124 0.812217 -0.00588968 0.0217555 -0.064893 -0.0336509 -0.596596 -0.646803 -0.587299 -0.635742 -0.851824 -0.849286 -0.861198 -0.861902 -0.0769831 -0.111316 -0.0147174 -0.0405566 -0.43916 -0.456542 -0.459626 -0.503458 0.450022 0.409477 0.391115 0.358555 -0.109304 -0.0784714 -0.159605 -0.130732 0.664011 0.68627 0.70836 0.721509 0.0798612 0.137486 0.0233411 0.0799054 0.672591 0.649588 0.689309 0.650364 -0.519664 -0.455096 -0.532992 -0.472963 0.12286 0.143353 0.177796 0.199654 0.164325 0.132534 0.103074 0.0718069 0.697564 0.706562 0.668495 0.670559 -0.280259 -0.279427 -0.320455 -0.337322 0.776841 0.801231 0.78719 0.820551 0.240086 0.303246 0.221958 0.298843 0.0269575 -0.0116359 0.0785543 0.0377008 -0.6815 -0.629723 -0.677923 -0.646046 -0.134968 -0.189163 -0.133307 -0.212108 0.204205 0.201746 0.150798 0.161402 -0.743732 -0.711836 -0.723994 -0.6815 0.784552 0.801645 0.76506 0.779186 0.115607 0.114038 0.0783758 0.0663663 0.176413 0.246579 0.189626 0.233249 -0.209139 -0.159605 -0.183476 -0.130732 -0.75942 -0.729762 -0.743732 -0.711836 0.65436 0.666089 0.705189 0.708636 0.546022 0.4964 0.533103 0.469803 0.598132 0.63624 0.646203 0.668008 -0.630837 -0.659121 -0.602571 -0.627449 -0.689778 -0.698679 -0.734419 -0.735661 -0.767918 -0.738604 -0.75942 -0.729762 0.224701 0.294647 0.246026 0.317221 -0.797017 -0.781444 -0.76807 -0.753759 0.801191 0.772238 0.809188 0.784099 -0.048611 -0.0137182 -0.00835456 0.0663663 -0.320927 -0.334003 -0.28111 -0.275632 -0.669402 -0.651665 -0.65103 -0.619143 0.257838 0.300441 0.21811 0.264614 -0.762991 -0.748106 -0.736149 -0.721627 0.0966