# vtk DataFile Version 3.0
#This file was generated by the deal.II library on 2025/5/2 at 12:59:07
ASCII
DATASET UNSTRUCTURED_GRID

POINTS 41472 double
0 1 5
0 1 4.91667
0 0.916667 5
0 0.916667 4.91667
0 1 5
0 0.916667 5
0 1 5.08333
0 0.916667 5.08333
0 1 4.83333
0 0.916667 4.83333
0 1 4.91667
0 0.916667 4.91667
0 1 5.08333
0 1 5.16667
0 1.08333 5.08333
0 1.08333 5.16667
0 1 4.83333
0 1.08333 4.83333
0 1 4.75
0 1.08333 4.75
0 1 4.58333
0 0.916667 4.58333
0 1 4.66667
0 0.916667 4.66667
0 1 4.08333
0 1.08333 4.08333
0 1 4
0 1.08333 4
0 1 4
0 1.08333 4
0 1 3.91667
0 1.08333 3.91667
0 1 4.5
0 0.916667 4.5
0 1 4.58333
0 0.916667 4.58333
0 1 4.5
0 1 4.41667
0 0.916667 4.5
0 0.916667 4.41667
0 1 4.16667
0 1.08333 4.16667
0 1 4.08333
0 1.08333 4.08333
0 1 3.83333
0 1 3.91667
0 1.08333 3.83333
0 1.08333 3.91667
0 1.08333 5
0 1.16667 5
0 1.08333 4.91667
0 1.16667 4.91667
0 1 5
0 1 5.08333
0 1.08333 5
0 1.08333 5.08333
0 1 3.66667
0 0.916667 3.66667
0 1 3.75
0 0.916667 3.75
0 1 3.58333
0 0.916667 3.58333
0 1 3.66667
0 0.916667 3.66667
0 1 3.5
0 0.916667 3.5
0 1 3.58333
0 0.916667 3.58333
0 1 3.41667
0 0.916667 3.41667
0 1 3.5
0 0.916667 3.5
0 1 3
0 1.08333 3
0 1 2.91667
0 1.08333 2.91667
0 1 3
0 1 2.91667
0 0.916667 3
0 0.916667 2.91667
0 1 3.16667
0 0.916667 3.16667
0 1 3.25
0 0.916667 3.25
0 1 3.33333
0 0.916667 3.33333
0 1 3.41667
0 0.916667 3.41667
0 1 3.33333
0 1 3.25
0 0.916667 3.33333
0 0.916667 3.25
0 1.25 5
0 1.25 4.91667
0 1.16667 5
0 1.16667 4.91667
0 1 3.08333
0 1 3
0 0.916667 3.08333
0 0.916667 3
0 1 2.83333
0 1 2.91667
0 1.08333 2.83333
0 1.08333 2.91667
0 1 2.75
0 1 2.83333
0 1.08333 2.75
0 1.08333 2.83333
0 0.833333 5
0 0.916667 5
0 0.833333 4.91667
0 0.916667 4.91667
0 1 5.25
0 1.08333 5.25
0 1 5.16667
0 1.08333 5.16667
0 0.5 5
0 0.583333 5
0 0.5 4.91667
0 0.583333 4.91667
0 1 2.66667
0 1 2.75
0 1.08333 2.66667
0 1.08333 2.75
0 0.666667 5
0 0.666667 4.91667
0 0.583333 5
0 0.583333 4.91667
0 2.33333 1
0 2.25 1
0 2.33333 1.08333
0 2.25 1.08333
0 2.33333 1
0 2.41667 1
0 2.33333 0.916667
0 2.41667 0.916667
0 2.5 1
0 2.58333 1
0 2.5 0.916667
0 2.58333 0.916667
0 2.5 1
0 2.5 0.916667
0 2.41667 1
0 2.41667 0.916667
0 1.08333 5.25
0 1.16667 5.25
0 1.08333 5.16667
0 1.16667 5.16667
0 1.08333 5.25
0 1.08333 5.33333
0 1.16667 5.25
0 1.16667 5.33333
0 1.5 5.25
0 1.58333 5.25
0 1.5 5.16667
0 1.58333 5.16667
0 2.66667 1
0 2.66667 0.916667
0 2.58333 1
0 2.58333 0.916667
0 1 2.58333
0 1 2.66667
0 1.08333 2.58333
0 1.08333 2.66667
0 3.41667 1.33333
0 3.33333 1.33333
0 3.41667 1.41667
0 3.33333 1.41667
0 2.08333 1
0 2.16667 1
0 2.08333 0.916667
0 2.16667 0.916667
0 2.83333 1
0 2.83333 0.916667
0 2.75 1
0 2.75 0.916667
0 2.75 1
0 2.75 0.916667
0 2.66667 1
0 2.66667 0.916667
0 1 2.5
0 1 2.58333
0 1.08333 2.5
0 1.08333 2.58333
0 1.08333 5.41667
0 1.16667 5.41667
0 1.08333 5.33333
0 1.16667 5.33333
0 1.25 5.41667
0 1.25 5.33333
0 1.16667 5.41667
0 1.16667 5.33333
0 1.25 5.41667
0 1.33333 5.41667
0 1.25 5.33333
0 1.33333 5.33333
0 0.833333 5.41667
0 0.833333 5.33333
0 0.75 5.41667
0 0.75 5.33333
0 1.91667 1
0 1.83333 1
0 1.91667 1.08333
0 1.83333 1.08333
0 1.25 4.83333
0 1.25 4.91667
0 1.33333 4.83333
0 1.33333 4.91667
0 0.25 5.58333
0 0.333333 5.58333
0 0.25 5.5
0 0.333333 5.5
0 1 4.41667
0 1.08333 4.41667
0 1 4.33333
0 1.08333 4.33333
0 1.41667 4.83333
0 1.33333 4.83333
0 1.41667 4.91667
0 1.33333 4.91667
0 1.25 5.08333
0 1.16667 5.08333
0 1.25 5.16667
0 1.16667 5.16667
0 1.25 5.08333
0 1.25 5.16667
0 1.33333 5.08333
0 1.33333 5.16667
0 1.25 3.5
0 1.16667 3.5
0 1.25 3.58333
0 1.16667 3.58333
0 0.25 5.66667
0 0.333333 5.66667
0 0.25 5.58333
0 0.333333 5.58333
0 1.75 1
0 1.75 1.08333
0 1.83333 1
0 1.83333 1.08333
0 0.833333 0.833333
0 0.916667 0.833333
0 0.833333 0.75
0 0.916667 0.75
0 0.25 4.75
0 0.333333 4.75
0 0.25 4.66667
0 0.333333 4.66667
0 2.91667 1
0 2.91667 0.916667
0 2.83333 1
0 2.83333 0.916667
0 2 1
0 1.91667 1
0 2 1.08333
0 1.91667 1.08333
0 1.66667 1
0 1.66667 1.08333
0 1.75 1
0 1.75 1.08333
0 0.416667 5.41667
0 0.5 5.41667
0 0.416667 5.33333
0 0.5 5.33333
0 0.666667 5
0 0.666667 5.08333
0 0.75 5
0 0.75 5.08333
0 0.333333 5.5
0 0.416667 5.5
0 0.333333 5.41667
0 0.416667 5.41667
0 1 2.41667
0 1.08333 2.41667
0 1 2.33333
0 1.08333 2.33333
0 0.666667 5.5
0 0.75 5.5
0 0.666667 5.41667
0 0.75 5.41667
0 3.08333 1
0 3 1
0 3.08333 1.08333
0 3 1.08333
0 3.41667 1.25
0 3.33333 1.25
0 3.41667 1.33333
0 3.33333 1.33333
0 0.666667 5.5
0 0.666667 5.41667
0 0.583333 5.5
0 0.583333 5.41667
0 1 4.5
0 1 4.58333
0 1.08333 4.5
0 1.08333 4.58333
0 1 2.25
0 1 2.33333
0 1.08333 2.25
0 1.08333 2.33333
0 2.08333 1
0 2 1
0 2.08333 1.08333
0 2 1.08333
0 1.66667 5
0 1.66667 5.08333
0 1.75 5
0 1.75 5.08333
0 1.66667 5.08333
0 1.66667 5.16667
0 1.75 5.08333
0 1.75 5.16667
0 2.08333 1
0 2.08333 1.08333
0 2.16667 1
0 2.16667 1.08333
0 0.25 4.83333
0 0.166667 4.83333
0 0.25 4.91667
0 0.166667 4.91667
0 3.08333 1.16667
0 3.08333 1.25
0 3.16667 1.16667
0 3.16667 1.25
0 3.08333 1.08333
0 3.08333 1.16667
0 3.16667 1.08333
0 3.16667 1.16667
0 0.666667 3.08333
0 0.75 3.08333
0 0.666667 3
0 0.75 3
0 0.0833333 5.75
0 0.166667 5.75
0 0.0833333 5.66667
0 0.166667 5.66667
0 0.333333 4.83333
0 0.416667 4.83333
0 0.333333 4.75
0 0.416667 4.75
0 1 2.16667
0 1 2.25
0 1.08333 2.16667
0 1.08333 2.25
0 0.25 5.41667
0 0.333333 5.41667
0 0.25 5.33333
0 0.333333 5.33333
0 0.333333 5.41667
0 0.416667 5.41667
0 0.333333 5.33333
0 0.416667 5.33333
0 0.416667 4.16667
0 0.416667 4.25
0 0.5 4.16667
0 0.5 4.25
0 0.666667 5.25
0 0.666667 5.16667
0 0.583333 5.25
0 0.583333 5.16667
0 0.666667 5.25
0 0.583333 5.25
0 0.666667 5.33333
0 0.583333 5.33333
0 0.5 4.16667
0 0.583333 4.16667
0 0.5 4.08333
0 0.583333 4.08333
0 0.25 5.5
0 0.333333 5.5
0 0.25 5.41667
0 0.333333 5.41667
0 0.666667 5.25
0 0.75 5.25
0 0.666667 5.16667
0 0.75 5.16667
0 3.41667 1.58333
0 3.41667 1.66667
0 3.5 1.58333
0 3.5 1.66667
0 3.41667 1.58333
0 3.41667 1.5
0 3.33333 1.58333
0 3.33333 1.5
0 1 4.83333
0 1 4.75
0 0.916667 4.83333
0 0.916667 4.75
0 0.666667 4.16667
0 0.666667 4.08333
0 0.583333 4.16667
0 0.583333 4.08333
0 0.666667 4.08333
0 0.75 4.08333
0 0.666667 4
0 0.75 4
0 1.41667 1
0 1.33333 1
0 1.41667 1.08333
0 1.33333 1.08333
0 1.08333 4.5
0 1.08333 4.58333
0 1.16667 4.5
0 1.16667 4.58333
0 1 5.25
0 0.916667 5.25
0 1 5.33333
0 0.916667 5.33333
0 1.5 5
0 1.5 4.91667
0 1.41667 5
0 1.41667 4.91667
0 1.25 5
0 1.25 5.08333
0 1.33333 5
0 1.33333 5.08333
0 3.16667 1
0 3.25 1
0 3.16667 0.916667
0 3.25 0.916667
0 1.5 4.83333
0 1.58333 4.83333
0 1.5 4.75
0 1.58333 4.75
0 0.833333 5.25
0 0.916667 5.25
0 0.833333 5.16667
0 0.916667 5.16667
0 1 5.5
0 1 5.41667
0 0.916667 5.5
0 0.916667 5.41667
0 1 5.25
0 1 5.16667
0 0.916667 5.25
0 0.916667 5.16667
0 0.833333 3.33333
0 0.833333 3.25
0 0.75 3.33333
0 0.75 3.25
0 0.833333 3.33333
0 0.833333 3.41667
0 0.916667 3.33333
0 0.916667 3.41667
0 1.75 4.33333
0 1.83333 4.33333
0 1.75 4.25
0 1.83333 4.25
0 1.75 5
0 1.75 5.08333
0 1.83333 5
0 1.83333 5.08333
0 1.58333 3.16667
0 1.58333 3.25
0 1.66667 3.16667
0 1.66667 3.25
0 1.5 3.33333
0 1.58333 3.33333
0 1.5 3.25
0 1.58333 3.25
0 0.666667 2.83333
0 0.583333 2.83333
0 0.666667 2.91667
0 0.583333 2.91667
0 1.41667 3.33333
0 1.33333 3.33333
0 1.41667 3.41667
0 1.33333 3.41667
0 3.08333 1
0 3.16667 1
0 3.08333 0.916667
0 3.16667 0.916667
0 1 2.08333
0 1 2.16667
0 1.08333 2.08333
0 1.08333 2.16667
0 1.58333 3.08333
0 1.66667 3.08333
0 1.58333 3
0 1.66667 3
0 1 1
0 1.08333 1
0 1 0.916667
0 1.08333 0.916667
0 1.5 5.41667
0 1.5 5.33333
0 1.41667 5.41667
0 1.41667 5.33333
0 1.25 1.25
0 1.25 1.33333
0 1.33333 1.25
0 1.33333 1.33333
0 1.5 5.5
0 1.5 5.41667
0 1.41667 5.5
0 1.41667 5.41667
0 3.08333 1.58333
0 3.08333 1.66667
0 3.16667 1.58333
0 3.16667 1.66667
0 3.33333 1.58333
0 3.33333 1.5
0 3.25 1.58333
0 3.25 1.5
0 0.833333 3.66667
0 0.833333 3.75
0 0.916667 3.66667
0 0.916667 3.75
0 1.5 5.58333
0 1.5 5.5
0 1.41667 5.58333
0 1.41667 5.5
0 0.833333 3.58333
0 0.833333 3.66667
0 0.916667 3.58333
0 0.916667 3.66667
0 0.666667 5.58333
0 0.666667 5.5
0 0.583333 5.58333
0 0.583333 5.5
0 0.416667 5
0 0.5 5
0 0.416667 4.91667
0 0.5 4.91667
0 0.416667 4.83333
0 0.416667 4.91667
0 0.5 4.83333
0 0.5 4.91667
0 0.5 5.08333
0 0.5 5.16667
0 0.583333 5.08333
0 0.583333 5.16667
0 1.25 5.5
0 1.33333 5.5
0 1.25 5.41667
0 1.33333 5.41667
0 1.25 1.33333
0 1.16667 1.33333
0 1.25 1.41667
0 1.16667 1.41667
0 0.333333 2.58333
0 0.333333 2.66667
0 0.416667 2.58333
0 0.416667 2.66667
0 0.25 2.5
0 0.25 2.58333
0 0.333333 2.5
0 0.333333 2.58333
0 1.5 5.66667
0 1.58333 5.66667
0 1.5 5.58333
0 1.58333 5.58333
0 0.333333 4.33333
0 0.416667 4.33333
0 0.333333 4.25
0 0.416667 4.25
0 0.25 2.5
0 0.25 2.41667
0 0.166667 2.5
0 0.166667 2.41667
0 3.75 1.75
0 3.75 1.66667
0 3.66667 1.75
0 3.66667 1.66667
0 0.666667 4.75
0 0.75 4.75
0 0.666667 4.66667
0 0.75 4.66667
0 0.833333 4.75
0 0.833333 4.66667
0 0.75 4.75
0 0.75 4.66667
0 0.25 5.5
0 0.25 5.41667
0 0.166667 5.5
0 0.166667 5.41667
0 3.41667 1.58333
0 3.5 1.58333
0 3.41667 1.5
0 3.5 1.5
0 3.16667 1.08333
0 3.16667 1.16667
0 3.25 1.08333
0 3.25 1.16667
0 0.833333 3.83333
0 0.75 3.83333
0 0.833333 3.91667
0 0.75 3.91667
0 0.833333 5.5
0 0.916667 5.5
0 0.833333 5.41667
0 0.916667 5.41667
0 0.0833333 4.41667
0 0.166667 4.41667
0 0.0833333 4.33333
0 0.166667 4.33333
0 1.5 0.333333
0 1.5 0.25
0 1.41667 0.333333
0 1.41667 0.25
0 1.5 4.5
0 1.5 4.58333
0 1.58333 4.5
0 1.58333 4.58333
0 0.416667 5.58333
0 0.5 5.58333
0 0.416667 5.5
0 0.5 5.5
0 1.5 4.33333
0 1.5 4.25
0 1.41667 4.33333
0 1.41667 4.25
0 1.66667 4.75
0 1.75 4.75
0 1.66667 4.66667
0 1.75 4.66667
0 1.75 4.83333
0 1.75 4.91667
0 1.83333 4.83333
0 1.83333 4.91667
0 1.66667 4.41667
0 1.75 4.41667
0 1.66667 4.33333
0 1.75 4.33333
0 1.66667 3
0 1.75 3
0 1.66667 2.91667
0 1.75 2.91667
0 1.5 3.08333
0 1.5 3
0 1.41667 3.08333
0 1.41667 3
0 1.58333 1
0 1.58333 1.08333
0 1.66667 1
0 1.66667 1.08333
0 2.16667 0.166667
0 2.25 0.166667
0 2.16667 0.0833333
0 2.25 0.0833333
0 1.91667 5
0 1.83333 5
0 1.91667 5.08333
0 1.83333 5.08333
0 1.5 2.75
0 1.5 2.83333
0 1.58333 2.75
[...]
POINT_DATA 41472
SCALARS phi double 1
LOOKUP_TABLE default
79.229 72.7973 89.3458 82.1052 79.229 89.3458 86.2246 97.2206 66.885 75.4486 72.7973 82.1052 86.2246 93.8323 74.6237 81.2233 66.885 57.8502 61.4512 53.1388 51.8715 58.5409 56.4582 63.7072 31.2545 26.9868 28.7427 24.8162 28.7427 24.8162 26.4411 22.8285 47.6589 53.7951 51.8715 58.5409 47.6589 43.7911 53.7951 49.4366 33.9948 29.3562 31.2545 26.9868 24.3329 26.4411 21.0092 22.8285 68.5557 57.3999 62.9773 52.7135 79.229 86.2246 68.5557 74.6237 20.636 23.3028 22.4027 25.3012 19.0198 21.4733 20.636 23.3028 17.5416 19.7989 19.0198 21.4733 16.1901 18.267 17.5416 19.7989 10.9934 9.5489 10.2076 8.87861 10.9934 10.2076 12.3625 11.4673 12.7954 14.4128 13.8264 15.5844 14.955 16.8658 16.1901 18.267 14.955 13.8264 16.8658 15.5844 45.8391 42.077 57.3999 52.7135 11.8536 10.9934 13.3417 12.3625 9.48964 10.2076 8.26692 8.87861 8.83341 9.48964 7.70845 8.26692 98.8359 89.3458 90.8365 82.1052 102.104 88.3996 93.8323 81.2233 129.286 122.911 118.852 112.987 8.23326 8.83341 7.19824 7.70845 115.677 106.331 122.911 112.987 -1.0362 -0.866082 -1.15733 -0.972422 -1.0362 -1.19329 -0.933967 -1.0785 -1.33626 -1.46412 -1.21003 -1.32767 -1.33626 -1.21003 -1.19329 -1.0785 88.3996 74.0753 81.2233 68.0442 88.3996 96.2021 74.0753 80.633 12.6212 -3.248 11.5037 -3.09663 -1.57597 -1.43057 -1.46412 -1.32767 7.68396 8.23326 6.7317 7.19824 -2.67911 -2.75221 -2.98019 -3.05964 -0.491547 -0.684108 -0.432858 -0.610023 -1.74868 -1.58948 -1.67104 -1.51805 -1.67104 -1.51805 -1.57597 -1.43057 7.1807 7.68396 6.30458 6.7317 104.684 87.7622 96.2021 80.633 70.2256 64.4985 87.7622 80.633 70.2256 52.1964 64.4985 47.9108 150.616 138.462 163.961 150.739 -0.080069 0.135991 -0.118102 0.116735 38.6209 42.077 28.56 31.1417 257.045 250.673 236.38 230.518 43.7911 37.835 40.2409 34.761 18.2939 28.56 19.9835 31.1417 49.9329 62.4985 54.3867 68.0442 49.9329 54.3867 37.0144 40.3455 10.0913 12.6708 10.922 13.7257 279.505 272.58 257.045 250.673 0.356948 0.356894 0.135991 0.116735 2.28738 2.14025 2.10514 1.96977 110.992 108.223 102.038 99.4903 -1.80834 -1.64437 -1.74868 -1.58948 -0.289733 -0.080069 -0.345987 -0.118102 0.581267 0.600708 0.356948 0.356894 205.104 196.806 188.593 180.958 115.677 125.84 107.633 117.097 230.518 223.051 211.974 205.104 6.71902 5.91295 6.29482 5.5532 191.595 178.333 176.163 163.961 -1.8722 -1.84961 -2.06597 -2.04142 -2.41014 -2.47739 -2.67911 -2.75221 191.595 176.163 203.522 187.136 47.6589 51.8715 41.1852 44.8352 5.90432 6.29482 5.22199 5.5532 -0.491547 -0.289733 -0.565338 -0.345987 -15.1656 -16.3732 -27.413 -29.685 -16.3732 -17.6817 -29.685 -32.1504 -0.491547 -0.565338 -0.684108 -0.774634 120.731 122.896 131.323 133.675 -2.28638 -2.53544 -2.29082 -2.54026 -2.06597 -2.28638 -2.07006 -2.29082 17.215 16.0318 15.9261 14.8375 312.592 309.329 287.488 284.486 117.721 113.888 108.223 104.696 5.54403 5.90432 4.91627 5.22199 217.367 211.974 199.875 194.913 211.974 205.104 194.913 188.593 58.1269 63.2124 55.7494 60.6283 148.905 136.891 158.194 145.437 148.905 158.194 161.965 172.062 55.7494 52.979 51.2698 48.7209 236.38 230.518 217.367 211.974 148.905 138.576 136.891 127.388 -3.68811 -4.10004 -3.56171 -3.96265 -3.68811 -3.31571 -3.78198 -3.40206 66.885 61.4512 75.4486 69.3301 49.835 45.8283 52.979 48.7209 45.8283 42.612 42.1512 39.1921 1.25878 1.48091 1.3371 1.57854 41.1852 44.8352 34.4189 37.4808 102.104 115.095 111.098 125.217 9.53941 8.67972 21.8255 19.9835 45.8391 49.9329 33.9534 37.0144 -1.87596 -1.86085 -1.70658 -1.69268 7.89395 -2.56767 7.17682 -2.44834 127.28 115.095 116.995 105.784 131.502 120.875 148.182 136.221 102.104 93.8323 115.095 105.784 18.6582 17.2335 20.3199 18.7623 18.6582 20.2152 16.8658 18.267 -14.511 -20.7048 -13.391 -19.0896 -27.413 -29.685 -39.4768 -42.7972 -0.322545 -0.43152 -2.29642 -2.57694 1.79231 -0.541991 1.71614 -0.43152 13.6651 14.4938 14.7459 15.6467 4.11285 6.40352 4.40579 6.89553 -1.8722 -1.87596 -1.70312 -1.70658 5.21078 5.54403 4.6332 4.91627 -0.215462 -2.03152 -0.110686 -1.78154 2.31016 2.11468 2.14484 1.96498 15.1628 13.8383 33.7995 30.9849 2.04957 2.16817 1.77004 1.86435 16.6033 15.1628 36.8596 33.7995 -3.86298 -4.2901 -3.86971 -4.29742 -3.78198 -3.40206 -3.84265 -3.45789 25.8044 28.0201 23.3028 25.3012 18.1689 16.6033 40.1856 36.8596 23.7748 25.8044 21.4733 23.3028 208.368 191.595 221.332 203.522 134.756 129.286 123.885 118.852 113.888 123.885 109.257 118.852 140.632 152.967 133.703 145.437 76.4513 56.8552 70.2256 52.1964 2.16817 2.46368 2.28833 2.60952 13.0421 14.057 12.638 13.6179 12.4022 13.3593 12.1104 13.0421 19.8698 -4.20217 18.1689 -3.97832 71.0747 68.7496 65.3516 63.2124 12.4022 11.5231 12.6122 11.7162 -3.73801 -3.34904 -3.9954 -3.58584 89.8369 83.5724 82.5744 76.8108 76.721 70.5072 83.5724 76.8108 236.38 217.367 240.596 221.246 -3.68811 -3.56171 -3.31571 -3.19941 -2.07006 -2.29082 -2.05364 -2.27297 30.4386 33.1781 33.0773 36.055 163.828 148.182 150.616 136.221 81.5758 80.7156 75.0044 74.213 0.425916 0.338232 0.541449 0.444528 5.39003 5.92924 -2.10605 -2.21827 242.558 232.755 223.051 214.032 4.46101 4.06407 10.7689 9.8676 -12.0634 -21.6017 -11.1785 -19.9541 -23.3856 -25.3181 -33.5974 -36.4174 -8.88439 -15.7189 -8.22294 -14.511 -1.78154 -3.43905 -1.5459 -3.07088 1.60249 1.56191 3.40973 3.22465 0.807393 0.846484 0.581267 0.600708 -0.497118 -0.576203 -0.526766 -0.599528 -51.2733 -39.4768 -55.6189 -42.7972 1.48818 1.50608 0.185554 0.0902514 33.7995 30.9849 52.1964 47.9108 -55.6189 -42.7972 -60.338 -46.4021 -0.567679 -0.737784 -1.57301 -1.83048 -0.920373 -1.11571 -2.10803 -2.40658 155.607 134.818 143.053 123.926 12.638 13.6179 12.15 13.0874 83.218 76.4513 103.935 95.5119 127.28 138.462 115.095 125.217 -26.1024 -48.0498 -24.1283 -44.3209 146.939 145.398 135.094 133.675 -4.68857 -4.89152 -5.20491 -5.4255 -0.206685 -0.226537 -0.0795167 -0.109537 1.37023 1.48262 1.51903 1.64119 -1.0362 -0.933967 -0.866082 -0.777447 -0.684108 -0.866082 -0.610023 -0.777447 -4.62566 -4.16572 -4.49936 -4.04952 189.046 187.067 173.822 172.001 -3.9954 -4.21823 -4.44638 -4.68857 -0.0795167 0.0515305 -0.0567075 0.0857282 -1.51805 -1.38662 -1.43057 -1.30614 124.2 135.094 122.896 133.675 0.425916 0.309698 0.338232 0.231307 -3.86298 -3.8225 -4.2901 -4.2461 -3.86298 -3.86971 -3.47659 -3.48279 -3.86971 -3.84265 -3.48279 -3.45789 0.431926 0.271194 0.379272 0.231392 1.37023 1.2243 1.48262 1.3277 -3.40206 -3.05964 -3.45789 -3.111 -1.38204 -1.41418 -1.2803 -1.30987 36.4667 39.609 35.2729 38.3115 4.37023 4.6332 3.81481 4.02952 -1.10961 -1.11171 -1.06605 -1.06798 -2.23298 -2.27297 -2.47739 -2.52087 -2.01684 -2.05364 -2.23298 -2.27297 12.7387 12.6122 11.8326 11.7162 183.783 179.218 168.98 164.78 -1.33993 -1.23215 -1.41459 -1.30084 147.454 160.379 146.939 159.819 272.58 263.759 250.673 242.558 139.285 151.5 134.756 146.578 3.38917 3.10532 8.30175 7.62511 8.65303 8.79141 9.28543 9.43584 110.992 102.038 112.983 103.87 189.707 206.314 189.046 205.595 0.581267 0.356948 0.554179 0.347795 313.682 341.06 312.592 339.875 169.25 146.654 155.607 134.818 -6.4891 -11.3862 -5.98313 -10.4887 250.673 242.558 230.518 223.051 -3.31571 -2.98019 -3.40206 -3.05964 1.6534 3.61769 1.71614 3.85114 -7.34284 -5.60762 -8.06932 -6.1833 217.367 199.875 221.246 203.444 -0.382269 -0.413431 -0.286939 -0.325723 3.28151 3.47527 2.91535 3.0773 108.223 104.696 99.4903 96.2454 113.888 109.257 104.696 100.435 4.85345 5.17147 4.48548 4.77152 45.4181 49.3586 44.938 48.8369 93.8067 102.038 91.4629 99.4903 -0.933967 -0.849241 -0.777447 -0.705235 6.42184 6.87616 6.24624 6.6853 88.4774 96.2454 84.871 92.3255 81.338 78.0199 74.7774 71.7246 120.875 104.684 111.098 96.2021 115.677 107.633 106.331 98.9305 97.7376 106.331 90.9287 98.9305 -3.73801 -3.9954 -4.16662 -4.44638 84.871 92.3255 80.6686 87.758 75.8995 80.6686 82.5744 87.758 0.478992 0.304292 0.431926 0.271194 -0.985707 -0.976289 -0.959779 -0.952434 79.2885 77.3045 72.9 71.0747 47.1576 44.8125 43.3836 41.226 64.1304 58.9539 68.1674 62.6681 83.4818 90.8365 75.4486 82.1052 83.4818 75.4486 76.721 69.3301 0.519919 0.330037 0.478992 0.304292 0.347795 0.144505 0.330037 0.143001 17.3054 18.7026 17.2464 18.6385 -1.1665 -1.23815 -1.16878 -1.24063 49.835 52.979 54.2 57.6172 -1.5569 -1.56008 -1.43177 -1.4347 79.229 68.5557 72.7973 62.9773 59.5511 64.887 64.7971 70.5967 64.7971 70.5072 58.5409 63.7072 59.5511 64.7971 53.7951 58.5409 3.89535 4.12499 3.4252 3.61398 -1.1665 -1.16878 -1.10961 -1.11171 6.27178 6.69724 5.75823 6.13907 -3.85124 -4.16662 -4.29481 -4.63759 -1.06605 -1.06798 -1.03444 -1.03622 178.188 163.828 193.953 178.333 -2.67911 -2.98019 -2.58067 -2.8732 61.4512 53.1388 56.4582 48.8105 59.5511 53.7951 54.7324 49.4366 4.34516 4.6139 3.89535 4.12499 79.2885 72.9 80.7156 74.213 -1.23215 -1.1424 -1.30084 -1.2056 -1.35577 -1.30084 -1.25614 -1.2056 176.163 163.961 161.965 150.739 38.6209 48.407 42.077 52.7135 30.2436 32.8452 28.1233 30.5406 43.7911 40.2409 49.4366 45.435 2.41067 2.28833 2.75978 2.60952 9.07632 9.74358 8.80996 9.45407 38.6209 28.56 35.447 26.1905 -1.03189 -0.948741 -1.14791 -1.05549 -0.948741 -0.881652 -1.05549 -0.979862 193.796 178.188 210.931 193.953 6.90682 7.3938 6.61482 7.07643 29.8595 37.4808 32.5333 40.817 74.6237 81.2233 62.4985 68.0442 27.8592 30.2436 25.9084 28.1233 14.0287 22.024 15.3268 24.0168 18.2939 16.7452 28.56 26.1905 148.905 161.965 138.576 150.739 5.88122 6.1861 6.28345 6.61482 23.0979 16.9956 21.2108 15.5964 27.4069 25.1583 34.4189 31.6097 25.1583 23.0979 31.6097 29.0334 224.365 223.584 206.314 205.595 7.89395 7.17682 18.2939 16.7452 288.491 287.488 265.313 264.39 19.6022 19.1211 18.1281 17.6854 263.759 253.104 242.558 232.755 9.53941 10.4787 -2.81953 -2.95429 253.104 240.688 232.755 221.332 20.6876 20.0215 19.1211 18.5082 5.92924 14.0287 6.52343 15.3268 5.39003 12.8419 5.92924 14.0287 11.7579 10.7689 18.5257 16.9956 -1.51863 -1.39657 -1.54729 -1.42293 226.598 210.931 208.368 193.953 -2.81953 -2.95429 -15.1656 -16.3732 3.10532 -1.44128 2.85355 -1.32952 3.7078 4.06407 -1.66337 -1.77388 17.7678 16.9051 16.4404 15.6467 59.2309 54.3867 74.0753 68.0442 7.02599 7.5277 6.87616 7.36484 -2.10605 -9.59429 -1.99488 -8.88439 -2.95429 -3.09663 -16.3732 -17.6817 7.02599 7.13377 7.5277 7.64484 -3.44785 -3.08207 -3.73801 -3.34904 -1.44128 -5.98313 -1.32952 -5.50822 -1.66337 -7.02893 -1.55255 -6.4891 12.6212 11.5037 28.3968 26.018 15.9261 14.7459 16.9051 15.6467 2.54848 2.34536 2.66064 2.44855 81.8632 81.5758 75.2688 75.0044 -49.0993 -45.2531 -40.1842 -37.0508 -34.161 -26.3842 -37.0508 -28.5982 -43.5829 -40.1842 -33.5974 -30.9971 -5.46056 -4.10916 -6.04183 -4.573 -40.1842 -37.0508 -30.9971 -28.5982 303.915 330.444 296.388 322.263 -2.72715 -3.07088 -4.10916 -4.573 -8.22294 -14.511 -7.60573 -13.391 -18.4313 -19.9541 -26.3842 -28.5982 -17.0227 -18.4313 -24.3398 -26.3842 -5.06187 -5.50822 -8.87576 -9.65355 -3.21503 -2.88045 -3.40366 -3.05399 -3.31571 -3.19941 -2.98019 -2.8732 1.03375 1.09252 0.807393 0.846484 264.39 261.627 243.137 240.596 -26.7613 -24.6618 -20.7048 -19.0896 -3.53158 -2.56327 -3.95926 -2.9068 -8.15078 -8.87576 -11.6071 -12.6325 -8.87576 -9.65355 -12.6325 -13.7367 -7.47449 -8.15078 -10.6545 -11.6071 -0.667551 -0.690758 -0.599528 -0.628174 -35.4218 -32.6385 -29.0338 -26.7613 -62.7206 -57.8027 -51.2733 -47.2707 -68.061 -55.6189 -73.8614 -60.338 -94.4482 -87.0087 -77.0838 -71.0327 -131.258 -120.873 -107.024 -98.5772 -120.873 -111.321 -98.5772 -90.8076 -3.13675 -2.77293 -2.24586 -1.95327 -116.207 -89.0636 -126.192 -96.6893 -1.57301 -1.83048 -2.56327 -2.9068 -34.8266 -50.3169 -32.1504 -46.4021 -29.685 -32.1504 -42.7972 -46.4021 246.41 229.382 226.598 210.931 -2.99105 -3.35475 -3.32361 -3.71621 -1.3241 -1.5459 -2.72715 -3.07088 286.801 275.22 263.759 253.104 275.22 261.725 253.104 240.688 -3.248 -19.1006 -3.09663 -17.6817 -2.20632 -2.31957 -2.45757 -2.58067 -1.827 -1.66153 -1.86085 -1.69268 3.67936 3.89535 3.2468 3.4252 2.41067 2.05176 2.28833 1.95811 189.707 189.046 174.431 173.822 -0.285241 -0.339016 -0.198849 -0.259531 -107.024 -82.0506 -116.207 -89.0636 -107.024 -98.5772 -82.0506 -75.6008 -0.650138 -0.718409 -0.667551 -0.730363 312.592 339.875 309.329 336.328 -77.0838 -71.0327 -59.1897 -54.5694 -34.8266 -37.7329 -50.3169 -54.5694 -98.5772 -90.8076 -75.6008 -69.6682 -0.382269 -0.473229 -0.413431 -0.497118 -48.0498 -69.6682 -44.3209 -64.2108 210.757 190.667 193.796 175.311 210.757 193.796 229.382 210.931 -19.1006 -20.6403 -34.8266 -37.7329 155.607 143.053 175.311 161.182 -2.36488 -2.64638 -2.09827 -2.35727 2.53591 2.41067 2.91535 2.75978 -4.99414 -4.8155 -5.53703 -5.34287 -3.58443 -22.3121 -3.41002 -20.6403 -24.1283 -44.3209 -22.3121 -40.8902 15.1628 -3.58443 13.8383 -3.41002 0.960257 0.814085 1.03028 0.878513 -40.8902 -59.1897 -37.7329 -54.5694 0.804188 0.670494 0.884717 0.744584 -4.49936 -4.33501 -4.99414 -4.8155 -4.33501 -4.13374 -4.8155 -4.59674 2.50555 2.45889 2.2871 2.24417 -30.5837 -56.5115 -28.2489 -52.1037 -22.3121 -40.8902 -20.6403 -37.7329 -3.97832 -26.1024 -3.77316 -24.1283 2.0374 1.98709 1.83812 1.79183 -3.77316 -24.1283 -3.58443 -22.3121 -2.59298 -2.80378 -2.31525 -2.50919 -0.727043 -0.687031 -0.605145 -0.574879 -1.33626 -1.19329 -1.48346 -1.32807 -4.44638 -4.68857 -4.94166 -5.20491 -5.27835 -5.22637 -5.84595 -5.78945 -4.44719 -30.5837 -4.20217 -28.2489 169.25 155.607 190.667 175.311 -4.20217 -28.2489 -3.97832 -26.1024 134.818 113.089 123.926 103.935 90.5718 83.218 113.089 103.935 6.45475 6.90682 6.1861 6.61482 -2.40187 -2.24577 -2.67886 -2.50919 -0.780696 -0.727043 -0.648205 -0.605145 -1.744 -1.62243 -1.93642 -1.80429 -0.849241 -0.780696 -0.705235 -0.648205 267.942 291.341 249.433 271.224 -5.05382 -5.6019 -4.89152 -5.4255 90.5718 67.4218 83.218 61.9189 341.06 370.814 339.875 369.526 -0.856319 -0.857247 -0.902064 -0.899334 -4.76085 -4.71303 -5.27835 -5.22637 146.654 123.037 134.818 113.089 303.915 296.388 279.505 272.58 21.7167 -4.44719 19.8698 -4.20217 -4.76085 -4.2901 -4.71303 -4.2461 -1.04449 -0.997357 -0.986826 -0.944302 370.814 403.149 369.526 401.749 -126.192 -96.6893 -137.048 -104.982 287.488 284.486 264.39 261.627 21.7167 19.8698 47.7263 43.7998 303.915 279.505 309.329 284.486 47.7263 43.7998 73.4012 67.4218 98.5631 73.4012 90.5718 67.4218 -3.78198 -3.84265 -4.20206 -4.268 -1.04068 -1.00263 -0.997357 -0.962773 -3.86971 -4.29742 -3.84265 -4.268 -1.01103 -1.06453 -1.06918 -1.12732 78.0199 84.871 74.1536 80.6686 -1.35577 -1.25614 -1.39657 -1.29367 97.7376 90.9287 89.8369 83.5724 -0.655329 -0.416915 -0.762644 -0.503511 -0.565338 -0.345987 -0.655329 -0.416915 1.13635 0.968912 1.15508 0.986143 -5.20491 -5.4255 -5.77047 -6.01023 23.7216 51.9915 25.8973 56.6241 84.0848 91.4629 81.338 88.4774 9.47165 8.86417 8.82736 8.26845 45.5785 49.533 45.4181 49.3586 -5.73289 -5.81757 -6.34435 -6.43638 -1.00428 -1.02377 -0.985707 -1.00364 38.4842 41.802 38.0779 41.3603 -2.75154 -2.45402 -2.99716 -2.68 210.757 229.191 190.667 207.354 -2.45402 -2.1874 -2.68 -2.39531 -0.988349 -0.95503 -0.971051 -0.940397 179.218 173.403 164.78 159.43 -2.88045 -2.57974 -3.05399 -2.7394 38.3115 41.6243 36.7442 39.9208 104.696 100.435 96.2454 92.3255 35.683 37.9357 38.7775 41.226 8.23436 8.69683 8.82736 9.33002 -1.32606 -1.32875 -1.23815 -1.24063 -1.43177 -1.4347 -1.32606 -1.32875 5.21078 5.75823 5.54403 6.13907 -0.988349 -0.971051 -1.01309 -0.993815 21.8893 21.8135 20.2267 20.157 -1.94971 -2.14099 -2.1874 -2.39531 1.1108 0.960257 1.18691 1.03028 -1.01595 -0.988349 -1.04284 -1.01309 37.4038 40.6276 36.4667 39.609 -2.31067 -2.45757 -2.57974 -2.7394 -2.07116 -2.20632 -2.31067 -2.45757 -1.85923 -1.98357 -2.07116 -2.20632 -1.05515 -1.01595 -1.08438 -1.04284 -1.13908 -1.08438 -1.15962 -1.10328 89.8369 82.5744 95.471 87.758 32.7647 35.5658 32.6497 35.4409 339.875 369.526 336.328 365.671 189.046 205.595 187.067 203.444 124.2 122.896 114.184 112.983 107.246 133.847 116.681 145.594 -0.881652 -0.829278 -0.979862 -0.919635 -1.01346 -1.01509 -1.00182 -1.00333 -0.947191 -1.01103 -0.999786 -1.06918 -0.947191 -0.907836 -1.01103 -0.966574 -1.46729 -1.33993 -1.54844 -1.41459 109.257 103.861 100.435 95.471 28.0201 30.5406 30.4386 33.1781 10.1346 10.9 9.2143 9.89971 4.09321 4.34516 3.67936 3.89535 3.67936 3.2468 3.47527 3.0773 -1.37045 -1.25083 -1.46729 -1.33993 7.3938 7.91954 7.07643 7.57459 2.6545 2.83483 2.42356 2.58381 330.444 359.275 322.263 350.384 21.8135 21.5868 20.157 19.9483 -1.13249 -1.03189 -1.25859 -1.14791 183.783 168.98 187.067 172.001 17.2464 18.6385 17.0698 18.4466 16.7769 18.1281 16.3696 17.6854 0.356948 0.135991 0.347795 0.144505 124.636 135.567 124.2 135.094 -18.2666 -14.9869 -19.8707 -16.3059 0.0528121 -0.0446767 -0.0208054 -0.110499 21.2106 21.5868 22.9655 23.3744 17.9036 13.1511 16.4592 12.0867 10.1725 10.9358 9.51227 10.2182 12.8363 16.1485 13.9352 17.5352 4.27535 4.01104 4.5641 4.2767 16.4592 15.1397 20.7122 19.0527 13.9352 17.5352 15.1397 19.0527 8.79013 9.43326 8.01114 8.58657 17.9036 16.4592 22.5262 20.7122 114.184 112.983 104.975 103.87 0.151086 0.0528121 0.0696108 -0.0208054 2.73283 2.50555 2.7693 2.53911 -1.38885 -1.60096 -1.73392 -1.97602 -0.684108 -0.774634 -0.866082 -0.972422 8.65303 9.28543 8.46064 9.07632 16.7769 17.0698 18.1281 18.4466 19.6022 18.1281 19.9483 18.4466 43.7998 40.1856 67.4218 61.9189 11.7677 12.4692 12.675 13.4375 8.30175 7.62511 13.1511 12.0867 8.79013 8.19977 9.51227 8.86417 -0.976289 -0.974811 -0.952434 -0.952863 142.84 139.285 131.323 128.052 139.285 134.756 128.052 123.885 3.47525 3.74619 3.41013 3.67541 -4.55427 -4.10004 -4.66516 -4.20206 0.816663 0.770819 0.201991 0.102729 5.50463 8.70152 5.95628 9.43099 -1.23755 -1.15672 -1.18193 -1.10554 11.7677 12.675 10.9877 11.8272 11.8345 12.8363 8.70152 9.43099 10.1346 10.9877 10.9 11.8272 -2.21094 -2.14046 -2.45344 -2.37683 -0.762644 -0.503511 -0.888438 -0.606785 8.06865 8.65303 7.89164 8.46064 86.2412 87.7923 93.8067 95.4926 3.74619 4.03088 3.67541 3.95396 -2.21094 -2.45344 -2.25969 -2.50643 12.781 13.7709 12.7387 13.725 183.783 199.875 179.218 194.913 -1.55255 -6.4891 -1.44128 -5.98313 -3.40366 -3.56171 -3.79086 -3.96265 2.11855 5.09819 2.26605 5.50463 -2.53544 -2.81529 -2.54026 -2.82054 2.75903 2.62349 2.54848 2.42378 0.425962 0.338918 0.315322 0.235238 -4.29481 -4.63759 -4.78129 -5.15386 1.2565 1.18691 1.09431 1.03028 -5.18709 -5.70236 -7.46566 -8.17894 -4.25454 -4.70522 -6.1833 -6.8016 -3.18809 -3.52071 -5.70236 -6.25348 -2.29642 -2.57694 -4.25454 -4.70522 -0.653582 -0.765941 -3.18809 -3.52071 1.88358 1.99171 -0.653582 -0.765941 3.40973 3.22465 5.19371 4.86599 -0.521868 -0.409736 -0.165644 -0.0819943 12.675 13.4375 13.6651 14.4938 1.25878 1.17752 1.48091 1.38189 4.42722 4.75244 4.39096 4.71304 -9.69373 -8.85152 -7.46566 -6.8016 4.75244 5.09719 4.71304 5.05436 -8.06932 -6.1833 -8.85152 -6.8016 -1.56008 -1.54729 -1.4347 -1.42293 9.5568 10.2658 9.52651 10.2329 11.8715 11.8326 11.0353 10.9996 -2.8746 -3.23766 -3.32971 -3.73231 -9.69373 -7.46566 -10.6006 -8.17894 -13.764 -10.6545 -14.9869 -11.6071 -3.35475 -2.9633 -3.75517 -3.32971 -3.35475 -3.75517 -3.71621 -4.14805 -20.9268 -19.2664 -16.2099 -14.9267 -2.10803 -2.40658 -3.27788 -3.67809 -11.5774 -8.94528 -12.6298 -9.76891 1.50608 1.53023 0.0902514 -0.00863841 -1.16878 -1.15962 -1.11171 -1.10328 -1.16878 -1.24063 -1.15962 -1.23067 8.26692 8.87861 6.98892 7.48955 1.82546 1.67074 1.96977 1.80351 -0.388198 -0.356517 -0.217367 -0.199344 1.55434 1.86435 1.62116 1.95811 265.313 264.39 243.986 243.137 -0.369075 -0.416147 -0.285241 -0.339016 -3.50243 -3.91569 -3.12261 -3.50286 159.819 173.822 158.144 172.001 223.584 221.246 205.595 203.444 -1.39185 -1.54083 -1.55367 -1.71559 -56.5115 -61.305 -82.0506 -89.0636 0.541449 0.444528 0.655495 0.549455 43.0346 46.768 41.6243 45.2352 -0.357199 -0.382269 -0.253585 -0.286939 -2.99105 -3.32361 -2.6618 -2.96777 0.637589 0.541449 0.761546 0.655495 226.598 208.368 240.688 221.332 -2.36488 -2.6618 -2.64638 -2.96777 -2.36488 -2.09827 -2.06002 -1.81778 173.403 188.593 166.379 180.958 33.5846 36.4667 32.4863 35.2729 1.47532 1.48818 0.276846 0.185554 -1.61588 -1.46729 -1.70408 -1.54844 58.1269 55.7494 53.4572 51.2698 2.66672 3.84279 2.78312 4.0614 0.756147 0.593952 0.67757 0.528343 4.99537 5.31413 3.84279 4.0614 4.99537 6.11644 5.31413 6.53264 2.5