# vtk DataFile Version 3.0
#This file was generated by the deal.II library on 2025/5/2 at 14:07:36
ASCII
DATASET UNSTRUCTURED_GRID

POINTS 18432 double
0 1 4.5
0 1.125 4.5
0 1 4.375
0 1.125 4.375
0 0.875 4.875
0 1 4.875
0 0.875 4.75
0 1 4.75
0 0.625 5.25
0 0.75 5.25
0 0.625 5.125
0 0.75 5.125
0 1 4.25
0 1.125 4.25
0 1 4.125
0 1.125 4.125
0 1 4
0 1 4.125
0 1.125 4
0 1.125 4.125
0 1 4.375
0 1.125 4.375
0 1 4.25
0 1.125 4.25
0 1 2.5
0 1.125 2.5
0 1 2.375
0 1.125 2.375
0 1 3.625
0 1 3.75
0 1.125 3.625
0 1.125 3.75
0 1 3.875
0 1 4
0 1.125 3.875
0 1.125 4
0 1 3.875
0 1.125 3.875
0 1 3.75
0 1.125 3.75
0 1 2.625
0 1.125 2.625
0 1 2.5
0 1.125 2.5
0 0.5 5.375
0 0.625 5.375
0 0.5 5.25
0 0.625 5.25
0 1.125 1.25
0 1.125 1.375
0 1.25 1.25
0 1.25 1.375
0 0.875 2.375
0 1 2.375
0 0.875 2.25
0 1 2.25
0 1 1.625
0 1.125 1.625
0 1 1.5
0 1.125 1.5
0 1.375 1.125
0 1.375 1.25
0 1.5 1.125
0 1.5 1.25
0 1 2.125
0 1.125 2.125
0 1 2
0 1.125 2
0 0.375 5.5
0 0.5 5.5
0 0.375 5.375
0 0.5 5.375
0 3 0.75
0 3 0.875
0 3.125 0.75
0 3.125 0.875
0 0.875 3.25
0 1 3.25
0 0.875 3.125
0 1 3.125
0 1 3.5
0 1 3.625
0 1.125 3.5
0 1.125 3.625
0 1 3
0 1 3.125
0 1.125 3
0 1.125 3.125
0 1 2.25
0 1.125 2.25
0 1 2.125
0 1.125 2.125
0 1 4.5
0 1 4.625
0 1.125 4.5
0 1.125 4.625
0 0.875 4.875
0 0.875 5
0 1 4.875
0 1 5
0 1 3.375
0 1.125 3.375
0 1 3.25
0 1.125 3.25
0 0.875 3.375
0 0.875 3.5
0 1 3.375
0 1 3.5
0 0.875 5
0 0.875 5.125
0 1 5
0 1 5.125
0 1 1.75
0 1 1.875
0 1.125 1.75
0 1.125 1.875
0 0.5 5.25
0 0.625 5.25
0 0.5 5.125
0 0.625 5.125
0 0.875 3
0 1 3
0 0.875 2.875
0 1 2.875
0 1 2.375
0 1.125 2.375
0 1 2.25
0 1.125 2.25
0 0.375 5.25
0 0.5 5.25
0 0.375 5.125
0 0.5 5.125
0 1 1.875
0 1 2
0 1.125 1.875
0 1.125 2
0 1.125 2.375
0 1.25 2.375
0 1.125 2.25
0 1.25 2.25
0 1.75 4.25
0 1.75 4.125
0 1.625 4.25
0 1.625 4.125
0 1.5 4.25
0 1.625 4.25
0 1.5 4.125
0 1.625 4.125
0 0.875 2.75
0 0.875 2.875
0 1 2.75
0 1 2.875
0 1.25 4.375
0 1.375 4.375
0 1.25 4.25
0 1.375 4.25
0 0.25 5.625
0 0.375 5.625
0 0.25 5.5
0 0.375 5.5
0 3 0.625
0 3 0.75
0 3.125 0.625
0 3.125 0.75
0 0.5 4.375
0 0.625 4.375
0 0.5 4.25
0 0.625 4.25
0 1.125 3.5
0 1.125 3.625
0 1.25 3.5
0 1.25 3.625
0 0.375 4.5
0 0.5 4.5
0 0.375 4.375
0 0.5 4.375
0 1.25 3.375
0 1.25 3.5
0 1.375 3.375
0 1.375 3.5
0 3.25 1.625
0 3.25 1.5
0 3.125 1.625
0 3.125 1.5
0 1.875 4.25
0 1.875 4.125
0 1.75 4.25
0 1.75 4.125
0 3.375 1.375
0 3.25 1.375
0 3.375 1.5
0 3.25 1.5
0 1.25 2.375
0 1.375 2.375
0 1.25 2.25
0 1.375 2.25
0 1.75 5.5
0 1.75 5.375
0 1.625 5.5
0 1.625 5.375
0 0.125 4.875
0 0.125 5
0 0.25 4.875
0 0.25 5
0 1.5 5.625
0 1.625 5.625
0 1.5 5.5
0 1.625 5.5
0 0.25 5.5
0 0.375 5.5
0 0.25 5.375
0 0.375 5.375
0 1.5 2.625
0 1.625 2.625
0 1.5 2.5
0 1.625 2.5
0 0.625 3.375
0 0.75 3.375
0 0.625 3.25
0 0.75 3.25
0 0.625 4.25
0 0.75 4.25
0 0.625 4.125
0 0.75 4.125
0 0.875 4.25
0 0.875 4.125
0 0.75 4.25
0 0.75 4.125
0 1.75 1.125
0 1.75 1
0 1.625 1.125
0 1.625 1
0 3 0.5
0 3 0.625
0 3.125 0.5
0 3.125 0.625
0 2.875 0.5
0 3 0.5
0 2.875 0.375
0 3 0.375
0 0.375 3
0 0.5 3
0 0.375 2.875
0 0.5 2.875
0 1.75 1.125
0 1.625 1.125
0 1.75 1.25
0 1.625 1.25
0 2.375 1.625
0 2.375 1.75
0 2.5 1.625
0 2.5 1.75
0 1.25 4
0 1.25 4.125
0 1.375 4
0 1.375 4.125
0 1.375 3.25
0 1.5 3.25
0 1.375 3.125
0 1.5 3.125
0 1.125 4
0 1.125 4.125
0 1.25 4
0 1.25 4.125
0 1.875 4.5
0 1.875 4.625
0 2 4.5
0 2 4.625
0 0.875 3.375
0 0.75 3.375
0 0.875 3.5
0 0.75 3.5
0 0.25 4.5
0 0.25 4.625
0 0.375 4.5
0 0.375 4.625
0 1.5 3.25
0 1.625 3.25
0 1.5 3.125
0 1.625 3.125
0 1.875 5.5
0 1.875 5.375
0 1.75 5.5
0 1.75 5.375
0 1.875 4.5
0 1.75 4.5
0 1.875 4.625
0 1.75 4.625
0 3 0.25
0 3 0.375
0 3.125 0.25
0 3.125 0.375
0 0.25 3
0 0.375 3
0 0.25 2.875
0 0.375 2.875
0 2.875 0.25
0 2.875 0.375
0 3 0.25
0 3 0.375
0 2.875 0.25
0 2.75 0.25
0 2.875 0.375
0 2.75 0.375
0 1.75 3
0 1.625 3
0 1.75 3.125
0 1.625 3.125
0 0.125 5
0 0.125 5.125
0 0.25 5
0 0.25 5.125
0 0.25 3.875
0 0.375 3.875
0 0.25 3.75
0 0.375 3.75
0 0.125 2.25
0 0.25 2.25
0 0.125 2.125
0 0.25 2.125
0 1.5 4.5
0 1.5 4.625
0 1.625 4.5
0 1.625 4.625
0 1.875 1.125
0 1.875 1
0 1.75 1.125
0 1.75 1
0 0.125 3.875
0 0.125 4
0 0.25 3.875
0 0.25 4
0 1.875 1
0 1.875 0.875
0 1.75 1
0 1.75 0.875
0 1.875 4
0 1.875 4.125
0 2 4
0 2 4.125
0 1.5 5.875
0 1.625 5.875
0 1.5 5.75
0 1.625 5.75
0 1.5 5.25
0 1.625 5.25
0 1.5 5.125
0 1.625 5.125
0 2.375 1.75
0 2.375 1.875
0 2.5 1.75
0 2.5 1.875
0 0.875 4.5
0 0.875 4.375
0 0.75 4.5
0 0.75 4.375
0 0.375 5.75
0 0.5 5.75
0 0.375 5.625
0 0.5 5.625
0 0.125 4.5
0 0.125 4.625
0 0.25 4.5
0 0.25 4.625
0 1.75 4
0 1.625 4
0 1.75 4.125
0 1.625 4.125
0 1.5 4
0 1.5 4.125
0 1.625 4
0 1.625 4.125
0 0.875 5.25
0 0.875 5.125
0 0.75 5.25
0 0.75 5.125
0 1.25 4.875
0 1.375 4.875
0 1.25 4.75
0 1.375 4.75
0 2.25 0.5
0 2.25 0.625
0 2.375 0.5
0 2.375 0.625
0 1.875 0.625
0 1.75 0.625
0 1.875 0.75
0 1.75 0.75
0 3.375 0.75
0 3.25 0.75
0 3.375 0.875
0 3.25 0.875
0 0.875 4.25
0 1 4.25
0 0.875 4.125
0 1 4.125
0 0.125 3
0 0.125 3.125
0 0.25 3
0 0.25 3.125
0 1.5 3.875
0 1.5 4
0 1.625 3.875
0 1.625 4
0 1.25 5.875
0 1.375 5.875
0 1.25 5.75
0 1.375 5.75
0 1.25 5.75
0 1.375 5.75
0 1.25 5.625
0 1.375 5.625
0 3.25 0.5
0 3.25 0.375
0 3.125 0.5
0 3.125 0.375
0 0 4.5
0 0.125 4.5
0 0 4.375
0 0.125 4.375
0 2.875 1.625
0 2.875 1.75
0 3 1.625
0 3 1.75
0 3.25 1
0 3.25 0.875
0 3.125 1
0 3.125 0.875
0 0.25 3.625
0 0.25 3.75
0 0.375 3.625
0 0.375 3.75
0 1.75 3.25
0 1.75 3.125
0 1.625 3.25
0 1.625 3.125
0 1.125 5.375
0 1.25 5.375
0 1.125 5.25
0 1.25 5.25
0 1 5.25
0 1.125 5.25
0 1 5.125
0 1.125 5.125
0 1.125 5.75
0 1.25 5.75
0 1.125 5.625
0 1.25 5.625
0 0.25 2.5
0 0.375 2.5
0 0.25 2.375
0 0.375 2.375
0 1.125 5.625
0 1.25 5.625
0 1.125 5.5
0 1.25 5.5
0 1.375 5.5
0 1.5 5.5
0 1.375 5.375
0 1.5 5.375
0 0 4.5
0 0 4.625
0 0.125 4.5
0 0.125 4.625
0 0 4.875
0 0 5
0 0.125 4.875
0 0.125 5
0 2.625 1.75
0 2.5 1.75
0 2.625 1.875
0 2.5 1.875
0 0.25 2.375
0 0.375 2.375
0 0.25 2.25
0 0.375 2.25
0 0.375 3.625
0 0.375 3.75
0 0.5 3.625
0 0.5 3.75
0 1.25 2.5
0 1.375 2.5
0 1.25 2.375
0 1.375 2.375
0 1.125 4.625
0 1.125 4.75
0 1.25 4.625
0 1.25 4.75
0 0 5.875
0 0.125 5.875
0 0 5.75
0 0.125 5.75
0 3.5 1.125
0 3.5 1.25
0 3.625 1.125
0 3.625 1.25
0 3.5 1.125
0 3.375 1.125
0 3.5 1.25
0 3.375 1.25
0 0.875 5.25
0 1 5.25
0 0.875 5.125
0 1 5.125
0 1.125 4.875
0 1.25 4.875
0 1.125 4.75
0 1.25 4.75
0 1 4.625
0 1 4.75
0 1.125 4.625
0 1.125 4.75
0 0 4.375
0 0.125 4.375
0 0 4.25
0 0.125 4.25
0 0 5.75
0 0.125 5.75
0 0 5.625
0 0.125 5.625
0 0.25 4.5
0 0.375 4.5
0 0.25 4.375
0 0.375 4.375
0 0.5 3
0 0.5 3.125
0 0.625 3
0 0.625 3.125
0 3.75 0.625
0 3.625 0.625
0 3.75 0.75
0 3.625 0.75
0 2.125 0.5
0 2 0.5
0 2.125 0.625
0 2 0.625
0 1 1.125
0 1 1.25
0 1.125 1.125
0 1.125 1.25
0 3.75 0.75
0 3.625 0.75
0 3.75 0.875
0 3.625 0.875
0 1.5 0.5
0 1.5 0.625
0 1.625 0.5
0 1.625 0.625
0 0.875 3.875
0 0.75 3.875
0 0.875 4
0 0.75 4
0 0.625 2.5
0 0.75 2.5
0 0.625 2.375
0 0.75 2.375
0 0.875 5.375
0 0.875 5.25
0 0.75 5.375
0 0.75 5.25
0 0.625 3
0 0.625 3.125
0 0.75 3
0 0.75 3.125
0 1.875 5.75
0 2 5.75
0 1.875 5.625
0 2 5.625
0 1.375 5.625
0 1.5 5.625
0 1.375 5.5
0 1.5 5.5
0 3.25 0.75
0 3.125 0.75
0 3.25 0.875
0 3.125 0.875
0 3.5 0.125
0 3.5 0
0 3.375 0.125
0 3.375 0
0 1.875 4.625
0 1.875 4.75
0 2 4.625
0 2 4.75
0 1.875 5
0 1.875 5.125
0 2 5
0 2 5.125
0 1.875 5.375
0 2 5.375
0 1.875 5.25
0 2 5.25
0 1.875 5.5
0 2 5.5
0 1.875 5.375
0 2 5.375
0 1.875 2.5
0 1.875 2.375
0 1.75 2.5
0 1.75 2.375
0 1.75 5.875
0 1.75 5.75
0 1.625 5.875
0 1.625 5.75
0 0.375 5
0 0.375 5.125
0 0.5 5
0 0.5 5.125
0 3.5 0.75
0 3.375 0.75
0 3.5 0.875
0 3.375 0.875
0 0.875 2.5
0 0.875 2.375
0 0.75 2.5
0 0.75 2.375
0 0.875 2.375
0 0.875 2.25
0 0.75 2.375
0 0.75 2.25
0 3.25 0.125
0 3.25 0
0 3.125 0.125
0 3.125 0
0 0.125 2.625
0 0.25 2.625
0 0.125 2.5
0 0.25 2.5
0 3.25 0.625
0 3.125 0.625
0 3.25 0.75
0 3.125 0.75
0 2.875 0.625
0 2.875 0.75
0 3 0.625
0 3 0.75
0 3 1.25
0 3 1.375
0 3.125 1.25
0 3.125 1.375
0 1.125 3.875
0 1.125 4
0 1.25 3.875
0 1.25 4
0 3.25 0.125
0 3.125 0.125
0 3.25 0.25
0 3.125 0.25
0 0.125 2.625
0 0.125 2.75
0 0.25 2.625
0 0.25 2.75
0 2.875 1.75
0 2.875 1.875
0 3 1.75
0 3 1.875
0 0.375 0.5
0 0.375 0.625
0 0.5 0.5
0 0.5 0.625
0 1.375 4.5
0 1.375 4.625
0 1.5 4.5
0 1.5 4.625
0 1.375 4.625
0 1.375 4.75
0 1.5 4.625
0 1.5 4.75
0 2.875 0.5
0 2.875 0.625
0 3 0.5
0 3 0.625
0 0.875 0.625
0 0.75 0.625
0 0.875 0.75
0 0.75 0.75
0 1.75 0.75
0 1.625 0.75
0 1.75 0.875
0 1.625 0.875
0 0.875 2.25
0 1 2.25
0 0.875 2.125
0 1 2.125
0 0.125 3.625
0 0.125 3.75
0 0.25 3.625
0 0.25 3.75
0 0.125 4.5
0 0.25 4.5
0 0.125 4.375
0 0.25 4.375
0 0.625 5
0 0.625 5.125
0 0.75 5
0 0.75 5.125
0 1.125 3.875
0 1.25 3.875
0 1.125 3.75
0 1.25 3.75
0 3 1.125
0 3 1.25
0 3.125 1.125
0 3.125 1.25
0 0 2.625
0 0 2.75
0 0.125 2.625
0 0.125 2.75
0 0 3
0 0 3.125
0 0.125 3
0 0.125 3.125
0 0 3.5
0 0 3.625
0 0.125 3.5
0 0.125 3.625
0 1.875 5.875
0 1.875 6
0 2 5.875
0 2 6
0 1.875 5.375
0 1.875 5.25
0 1.75 5.375
0 1.75 5.25
0 1.875 5.875
0 1.875 5.75
0 1.75 5.875
0 1.75 5.75
0 1.875 5.75
0 1.875 5.625
0 1.75 5.75
0 1.75 5.625
0 2.875 1.75
0 2.75 1.75
0 2.875 1.875
0 2.75 1.875
0 1.875 5.25
0 1.875 5.125
0 1.75 5.25
0 1.75 5.125
0 1.875 0.5
0 1.875 0.625
0 2 0.5
0 2 0.625
0 3.375 0.625
0 3.25 0.625
0 3.375 0.75
0 3.25 0.75
0 1.25 3.875
0 1.375 3.875
0 1.25 3.75
0 1.375 3.75
0 1 1.25
0 1 1.375
0 1.125 1.25
0 1.125 1.375
0 2.875 1.875
0 2.75 1.875
0 2.875 2
0 2.75 2
0 3.875 0.125
0 3.75 0.125
0 3.875 0.25
0 3.75 0.25
0 3 1.625
0 3.125 1.625
0 3 1.5
0 3.125 1.5
0 1 2.625
0 1 2.75
0 1.125 2.625
0 1.125 2.75
0 2.625 1.875
0 2.5 1.875
0 2.625 2
0 2.5 2
0 1.875 3.875
0 2 3.875
0 1.875 3.75
0 2 3.75
0 3.875 1.25
0 3.75 1.25
0 3.875 1.375
0 3.75 1.375
0 3.875 0.625
0 3.75 0.625
0 3.875 0.75
0 3.75 0.75
0 1.75 4.5
0 1.75 4.375
0 1.625 4.5
0 1.625 4.375
0 1.75 3.375
0 1.75 3.25
0 1.625 3.375
0 1.625 3.25
0 2.375 0.5
0 2.5 0.5
0 2.375 0.375
0 2.5 0.375
0 0.375 4.375
0 0.5 4.375
0 0.375 4.25
0 0.5 4.25
0 1.125 2.25
0 1.25 2.25
0 1.125 2.125
0 1.25 2.125
0 1.75 4.875
0 1.75 4.75
0 1.625 4.875
0 1.625 4.75
0 3 1.375
0 3 1.5
0 3.125 1.375
0 3.125 1.5
0 1.25 4.875
0 1.25 5
0 1.375 4.875
0 1.375 5
0 1.125 4.5
0 1.125 4.625
[...]
POINT_DATA 18432
SCALARS phi double 1
LOOKUP_TABLE default
47.6589 37.8357 41.9779 33.309 82.9672 69.7788 73.0899 61.4512 153.683 138.576 135.467 122.135 36.9831 29.3328 32.5949 25.8436 28.7427 32.5949 22.7846 25.8436 41.9779 33.309 36.9831 29.3328 7.1807 5.85128 6.50248 5.32927 19.8099 22.4027 15.715 17.7625 25.3638 28.7427 20.1058 22.7846 25.3638 20.1058 22.4027 17.7625 7.95256 6.44613 7.1807 5.85128 188.717 174.331 166.379 153.683 2.45394 2.68623 2.04957 2.22802 7.58505 6.50248 6.85968 5.90432 3.74241 3.18823 3.41896 2.92989 1.50152 1.62802 1.12015 1.19588 5.37422 4.46052 4.90162 4.09528 226.982 214.032 200.145 188.717 -1.41418 -1.60733 -1.43507 -1.631 16.4233 13.8264 14.6056 12.3138 17.5416 19.8099 13.9278 15.715 10.9934 12.3138 8.80153 9.83012 5.90432 4.86896 5.37422 4.46052 47.6589 54.1161 37.8357 42.985 82.9672 94.1734 69.7788 79.229 15.5587 12.3695 13.8264 11.012 18.5014 20.8761 15.5587 17.5416 94.1734 106.883 79.229 89.9488 4.09321 4.4773 3.46524 3.76571 166.379 153.683 146.671 135.467 13.0159 10.9934 11.6254 9.84053 6.50248 5.32927 5.90432 4.86896 176.464 166.379 155.571 146.671 4.4773 4.90162 3.76571 4.09528 5.32927 4.08372 4.86896 3.76977 -13.391 -11.8601 -4.6931 -4.18421 4.06407 -4.6931 3.54397 -4.18421 10.4085 11.6254 8.83341 9.84053 24.1055 14.5112 21.2108 12.7439 268.041 257.392 236.38 226.982 -1.26445 -1.41418 -1.28289 -1.43507 68.7714 63.4792 60.6283 55.9579 13.9278 15.715 10.0913 11.3676 82.7841 78.0199 72.9758 68.7714 8.98378 10.0913 5.45422 6.09175 -4.05008 -3.45789 -4.07919 -3.48358 -21.8939 -19.3639 -13.391 -11.8601 -2.86694 -2.95097 -3.36267 -3.45789 4.08372 2.78527 3.76977 2.62389 -44.3209 -39.2788 -13.9622 -12.4874 128.965 146.296 125.916 142.84 19.0018 -15.6335 16.6033 -13.9622 236.38 226.982 208.438 200.145 1.47042 -0.253972 1.46023 -0.0615405 23.4685 21.1518 20.8068 18.7623 55.9579 50.4004 49.3401 44.4356 44.0424 38.8247 50.4004 44.4356 0.353231 0.356948 0.73539 0.694202 -1.1528 -1.26445 -1.16907 -1.28289 -1.11105 -1.1528 -1.03732 -1.07416 18.8309 17.7678 16.7571 15.819 0.353231 0.73539 0.326845 0.759888 -2.65934 -3.16093 -3.07001 -3.62628 16.4592 18.6759 9.86514 11.2038 4.90926 1.71614 4.44448 1.62656 22.7846 25.8436 16.4592 18.6759 -27.9407 -31.5494 -38.4379 -43.4443 18.5014 21.1518 20.8761 23.8794 86.2412 97.8356 82.7841 93.9182 1.71614 -1.50544 1.62656 -1.21647 -73.999 -65.4696 -44.3209 -39.2788 -27.9407 -17.0227 -31.5494 -19.1778 -1.02377 -1.07416 -1.03644 -1.08852 19.6022 18.8309 17.4378 16.7571 -0.991262 -1.03732 -1.02377 -1.07416 -0.991262 -0.939424 -1.03732 -0.97858 -3.43905 -0.947057 -4.04027 -1.21647 146.296 165.946 142.84 162.03 46.0154 44.165 40.6276 38.9946 10.1918 9.97086 9.15789 8.96292 5.39003 6.21921 -5.8544 -6.5224 -0.0203606 0.0272545 0.353231 0.356948 47.1374 53.4154 46.0154 52.144 0.0272545 0.049 0.356948 0.339953 -17.1108 -19.3639 -23.4776 -26.5785 24.7872 -19.6853 21.7167 -17.5302 12.6212 -11.1833 10.9801 -10.0273 -3.16093 -3.74272 -3.62628 -4.27003 56.7232 49.9771 64.887 57.1816 291.849 275.22 257.392 242.718 88.3373 100.211 86.2412 97.8356 -10.4887 -3.71477 -11.8601 -4.18421 3.10532 3.54397 -3.71477 -4.18421 121.293 106.883 138.576 122.135 40.3123 24.4939 35.447 21.4874 -0.556258 -0.588486 -0.708113 -0.76056 0.025495 0.25209 0.0475263 0.304292 -1.37796 -1.42293 -1.56628 -1.61725 44.0424 36.9831 38.8247 32.5949 20.0699 22.5989 19.6022 22.0689 2.7389 3.10532 -3.27981 -3.71477 111.866 68.8668 98.5631 60.6168 98.5631 60.6168 86.8185 53.331 -1.15962 -1.08018 -1.16907 -1.08852 89.0396 88.3373 78.4962 77.8764 -3.90049 -4.56733 -4.02907 -4.71303 -1.86085 -1.61725 -1.87644 -1.631 35.8934 40.6276 34.4522 38.9946 -4.70522 -4.04027 -1.50544 -1.21647 92.3198 67.3023 81.3088 59.2309 102.104 81.3088 89.9488 71.5967 134.963 98.5631 118.942 86.8185 12.4022 11.9344 11.1105 10.6976 118.942 86.8185 104.8 76.4513 46.8987 16.6033 41.2222 14.4866 89.0396 101.007 88.3373 100.211 129.987 147.454 128.965 146.296 -4.01968 -3.62628 -4.71581 -4.27003 11.1105 10.6976 9.97086 9.60648 34.4522 38.9946 32.4662 36.7442 4.43989 2.96855 4.08372 2.78527 42.985 48.8379 31.1676 35.447 355.628 352.85 313.682 311.231 -1.98222 -2.31957 -1.82501 -2.14142 -1.98222 -2.09443 -2.31957 -2.44671 121.293 102.104 106.883 89.9488 55.4862 40.3123 48.8379 35.447 54.1161 61.4512 42.985 48.8379 78.4962 77.8764 69.2104 68.6634 313.682 311.231 276.661 274.497 86.2412 82.7841 76.0266 72.9758 17.7678 19.9903 16.4298 18.474 -0.947909 -1.06908 -1.05549 -1.19279 -0.388241 -0.206685 -0.398098 -0.192367 2.56652 2.83483 2.23038 2.45394 -1.05549 -1.19279 -1.20088 -1.35646 0.596051 0.717252 0.390103 0.483881 30.2156 34.5853 34.2404 39.1921 10.478 9.51227 9.41236 8.56008 137.628 121.293 157.212 138.576 16.4298 18.474 14.8375 16.6698 -94.6189 -131.258 -83.664 -115.998 53.331 19.0018 46.8987 16.6033 -1.42293 -1.43507 -1.61725 -1.631 -0.93647 -0.936457 -0.977747 -0.972884 -31.5494 -35.6207 -43.4443 -49.0993 -45.4136 -51.2899 -62.7206 -70.9012 -65.4696 -90.6511 -57.9399 -80.1625 -73.999 -102.533 -65.4696 -90.6511 -3.05059 -2.5266 -1.57301 -1.22264 -63.8569 -56.5115 -19.6853 -17.5302 137.141 155.571 129.286 146.671 -1.30084 -1.37796 -1.4789 -1.56628 8.40741 7.58505 9.51227 8.56008 7.58505 6.85968 8.56008 7.72014 -1.00182 -0.99413 -1.00832 -0.999862 14.1908 13.8693 12.6859 12.4022 -1.27218 -1.28289 -1.42293 -1.43507 -1.21715 -1.36058 -1.26445 -1.41418 -2.50643 -2.9346 -2.54088 -2.97364 20.1058 22.7846 14.5237 16.4592 -1.00182 -1.00832 -1.02908 -1.03644 14.1908 15.9022 13.8693 15.538 -4.56733 -5.33638 -4.71303 -5.50148 2.01357 2.32351 1.92631 2.22464 16.5351 18.8482 5.39003 6.21921 18.8482 21.4874 6.21921 7.17682 -1.11105 -1.21715 -1.1528 -1.26445 1.78264 1.95207 2.03863 2.23062 0.304292 0.566946 0.339953 0.637579 6.85968 5.90432 6.21732 5.37422 36.7671 41.6178 35.8934 40.6276 88.3373 86.2412 77.8764 76.0266 119.399 135.467 107.633 122.135 20.1058 14.5237 17.7625 12.8363 -2.14712 -2.50643 -2.17753 -2.54088 14.2985 16.0243 14.1908 15.9022 20.2267 22.7765 20.0699 22.5989 32.7647 37.0599 32.5063 36.7671 -107.038 -121.12 -148.555 -168.165 -65.4696 -57.9399 -39.2788 -34.8266 -107.038 -94.6189 -63.8569 -56.5115 -94.6189 -83.664 -56.5115 -50.0344 -4.56733 -4.33501 -5.33638 -5.07312 -57.9399 -51.2899 -34.8266 -30.8925 -0.0144217 0.025495 -0.206685 -0.192367 -1.23249 -1.27218 -1.37796 -1.42293 14.5237 8.70443 12.8363 7.70082 2.83483 3.11783 2.45394 2.68623 -5.33638 -5.07312 -6.21873 -5.92042 -0.717139 -0.805141 -0.706496 -0.806215 -4.02907 -4.07919 -3.43934 -3.48358 7.95256 8.83341 6.44613 7.1264 -4.71581 -4.27003 -5.51554 -5.0104 -15.1017 -20.7205 -13.3081 -18.2666 -1.64398 -1.91505 -1.95732 -2.26448 -0.802819 -0.947909 -0.891076 -1.05549 -17.0227 -15.1035 -5.8544 -5.24745 -5.44041 -4.70522 -1.81458 -1.50544 -0.708113 -0.841437 -0.681726 -0.799385 72.9758 68.7714 64.3386 60.6283 4.86896 3.76977 4.46052 3.49048 -24.3324 -21.6017 -8.08261 -7.26132 -2.9346 -3.43934 -2.97364 -3.48358 40.3123 45.8391 24.4939 27.9145 37.8357 42.985 27.4069 31.1676 0.356948 0.339953 0.694202 0.637579 -5.33638 -6.21873 -5.50148 -6.40581 -0.677452 -0.681726 -0.781285 -0.799385 -0.95503 -0.996264 -0.889493 -0.922001 -0.869065 -0.898853 -0.939424 -0.97858 -39.2788 -34.8266 -12.4874 -11.1833 -34.8266 -30.8925 -11.1833 -10.0273 -50.0344 -44.3209 -15.6335 -13.9622 -9.25778 -8.15078 -3.27981 -2.87523 -1.06453 -0.980379 -0.996264 -0.922001 6.21921 7.17682 -6.5224 -7.26132 20.2267 20.0699 17.9889 17.8506 -5.87517 -5.04591 -3.43905 -2.89604 -0.745406 -0.873448 -0.802819 -0.947909 3.01025 3.23923 2.2227 2.34682 11.4447 11.3608 10.2658 10.1918 147.454 167.258 146.296 165.946 -107.038 -63.8569 -121.12 -72.189 -0.968444 -0.922697 -0.991262 -0.939424 -5.87517 -3.43905 -6.80076 -4.04027 -15.1017 -13.3081 -9.25778 -8.15078 -0.873448 -0.827634 -0.980379 -0.922001 257.392 242.718 226.982 214.032 -3.41719 -2.89937 -3.07001 -2.59298 149.199 118.942 131.502 104.8 -2.83447 -2.67479 -3.32587 -3.14494 -0.0144217 -0.206685 -0.0695461 -0.239218 9.53941 10.9801 -8.99952 -10.0273 14.5112 4.67573 12.7439 4.06407 0.25209 0.483881 0.304292 0.566946 8.80153 9.83012 6.47454 7.1933 2.10353 2.2227 1.39105 1.41535 8.40741 7.1807 7.58505 6.50248 -15.1017 -17.1108 -20.7205 -23.4776 77.8764 76.0266 68.6634 67.031 -0.806215 -0.889493 -0.827634 -0.922001 10.6976 10.1286 9.60648 9.10434 3.17957 1.47042 2.96855 1.46023 11.2896 10.478 10.1286 9.41236 -0.0203606 0.353231 -0.09649 0.326845 -1.65764 -2.63404 -1.30397 -2.16563 10.2658 10.1918 9.22322 9.15789 208.438 200.145 183.783 176.464 -1.96669 -0.253972 -2.40658 -0.465812 14.4866 -12.4874 12.6212 -11.1833 41.6149 38.405 36.7442 33.9115 38.405 43.5203 34.5853 39.1921 6.47454 7.1933 4.04872 4.44448 -0.968444 -0.964674 -0.922697 -0.924302 -0.860606 -0.922697 -0.869507 -0.924302 -5.87517 -8.21741 -5.04591 -7.11293 -5.87517 -6.80076 -8.21741 -9.45487 0.20483 0.338232 0.063284 0.177839 76.0266 72.9758 67.031 64.3386 3.17957 3.4249 1.47042 1.48818 -2.77422 -2.32094 -2.33194 -1.93193 -2.77422 -3.2911 -2.32094 -2.77747 -5.50148 -6.40581 -5.56584 -6.47874 -2.5266 -3.78032 -2.06382 -3.17022 68.8668 78.2067 24.7872 28.258 -2.06382 -1.65764 -0.913078 -0.642116 68.8668 24.7872 60.6168 21.7167 -17.1108 -10.4887 -19.3639 -11.8601 352.85 344.56 311.231 303.915 183.783 176.464 162.03 155.571 -0.388241 -0.39944 -0.206685 -0.239218 -0.208225 0.600806 -0.407773 0.50898 5.45422 1.83595 4.90926 1.71614 27.9145 31.8018 9.53941 10.9801 41.2222 14.4866 36.2153 12.6212 -0.588486 -0.398098 -0.648205 -0.432467 37.8357 27.4069 33.309 24.1055 -0.648205 -0.432467 -0.739367 -0.494904 31.1676 35.447 18.8482 21.4874 29.3328 21.2108 25.8436 18.6759 -0.866082 -0.739367 -0.589069 -0.494904 -1.64398 -1.95732 -1.33246 -1.60432 -1.95732 -2.33194 -1.60432 -1.93193 -2.77422 -2.33194 -3.16861 -2.68 128.965 125.916 113.683 110.992 47.1374 46.0154 41.6178 40.6276 -56.5115 -50.0344 -17.5302 -15.6335 28.0845 26.9621 24.8804 23.8899 -0.559187 -0.428335 -0.547715 -0.39944 60.6168 21.7167 53.331 19.0018 -0.556258 -0.388241 -0.588486 -0.398098 4.04872 4.44448 1.56191 1.62656 1.0935 1.23424 0.831389 0.937233 9.41236 8.56008 8.47228 7.72014 30.2156 25.3638 26.6843 22.4027 2.23038 1.87353 2.01353 1.69861 -0.805141 -0.820559 -0.878633 -0.885416 -2.06382 -3.17022 -1.65764 -2.63404 -4.71303 -5.50148 -4.76982 -5.56584 100.211 113.683 97.8356 110.992 -1.17793 -1.01458 -1.38904 -1.20088 242.077 236.38 213.467 208.438 153.113 111.866 134.963 98.5631 67.031 64.3386 59.1121 56.7361 303.915 291.849 268.041 257.392 -0.137205 -0.0695461 -0.286939 -0.239218 28.765 28.0845 25.4809 24.8804 -2.1916 -1.81778 -1.67407 -1.36107 26.9621 25.4154 23.8899 22.525 20.8761 23.8794 23.5884 26.9916 9.34261 8.40741 10.5946 9.51227 9.34261 10.5946 10.4085 11.8272 6.85968 6.21732 7.72014 6.97668 49.9771 41.9779 44.0424 36.9831 12.6859 12.4022 11.3608 11.1105 0.345126 0.497208 0.20483 0.338232 -1.95732 -2.26448 -2.33194 -2.68 344.56 330.887 303.915 291.849 -0.999118 -0.208225 -1.30397 -0.407773 -3.75719 -3.94218 -4.40495 -4.61457 64.3386 60.6283 56.7361 53.4617 5.39003 -5.8544 4.67573 -5.24745 60.6283 55.9579 53.4617 49.3401 67.3023 41.2222 59.2309 36.2153 56.7232 47.6589 49.9771 41.9779 215.151 213.467 189.707 188.22 -0.717139 -0.616001 -0.742898 -0.653644 -0.214741 -0.346881 -0.299534 -0.416147 -3.14212 -3.73231 -3.74272 -4.41288 -2.6309 -2.04447 -3.14212 -2.4776 68.6634 67.031 60.5527 59.1121 28.765 32.5063 28.0845 31.7352 20.0699 19.6022 17.8506 17.4378 1.52141 1.80991 1.49151 1.77603 -3.41719 -3.07001 -4.01968 -3.62628 19.6022 22.0689 18.8309 21.1948 -1.96669 -1.57301 -0.253972 -0.0615405 8.27794 9.53941 -8.08261 -8.99952 1.48818 1.51729 -0.465812 -0.696867 -0.556258 -0.708113 -0.547715 -0.681726 -2.45807 -2.89937 -2.67479 -3.14494 -2.41806 -2.83447 -2.50643 -2.9346 8.70443 9.86514 2.7389 3.10532 29.9664 33.9115 26.9916 30.5406 49.9771 44.0424 57.1816 50.4004 55.4862 63.0333 40.3123 45.8391 13.0159 14.6056 10.9934 12.3138 0.326845 0.759888 0.275916 0.766618 9.34261 7.95256 8.40741 7.1807 69.2104 68.6634 61.0354 60.5527 -0.0773045 0.063284 0.0185315 0.177839 227.814 200.887 260.102 229.382 -0.214741 -0.137205 -0.346881 -0.286939 -0.913078 -0.642116 0.264055 0.3967 0.736917 0.941166 0.613262 0.801046 32.5063 36.7671 31.7352 35.8934 -3.64101 -3.05059 -1.96669 -1.57301 86.8185 53.331 76.4513 46.8987 1.83595 -1.81458 1.71614 -1.50544 76.4513 46.8987 67.3023 41.2222 12.6086 14.1094 11.6889 13.0673 28.7108 32.4662 26.5046 29.9664 63.4792 57.1816 55.9579 50.4004 56.7232 64.3873 47.6589 54.1161 63.0333 71.5967 45.8391 52.113 3.51608 3.87478 3.87024 4.2767 4.25378 3.87024 4.71435 4.2767 69.7788 55.4862 61.4512 48.8379 9.22322 9.15789 8.29835 8.2407 -1.17793 -0.935317 -1.01458 -0.800466 -1.38602 -1.1111 -1.17793 -0.935317 -3.64101 -5.25081 -3.05059 -4.47123 -1.38602 -1.17793 -1.62523 -1.38904 274.497 268.041 242.077 236.38 -0.706496 -0.806215 -0.714637 -0.827634 -0.73971 -0.999118 -1.41077 -1.75953 -0.137205 0.0185315 -0.0695461 0.106926 -1.02908 -1.03644 -1.08018 -1.08852 31.7352 35.8934 30.4634 34.4522 -17.0227 -5.8544 -19.1778 -6.5224 16.6033 -13.9622 14.4866 -12.4874 -1.06453 -1.16443 -0.980379 -1.06908 -2.72287 -3.19941 -2.521 -2.97067 113.954 129.286 105.228 119.399 -2.09443 -1.8031 -2.15987 -1.86085 7.64043 6.97668 6.90155 6.31579 81.3088 59.2309 71.5967 52.113 -2.15987 -1.86085 -2.17753 -1.87644 56.7232 64.887 64.3873 73.6381 64.3873 73.0899 54.1161 61.4512 -0.0203606 -0.09649 -0.379555 -0.503511 4.25378 4.67267 3.74241 4.09321 355.628 403.149 352.85 400.002 12.781 12.6859 11.4447 11.3608 28.993 28.765 25.6821 25.4809 47.5133 47.1374 41.9495 41.6178 -4.71581 -5.51554 -5.07312 -5.92042 330.887 312.044 291.849 275.22 -4.01968 -4.71581 -4.33501 -5.07312 -2.65934 -3.07001 -2.23057 -2.59298 0.80018 0.94856 0.596051 0.717252 13.0159 14.8375 14.6056 16.6698 79.229 89.9488 63.0333 71.5967 8.83341 9.84053 7.1264 7.90623 3.11783 3.41896 2.68623 2.92989 3.98248 4.43933 3.95845 4.41209 -0.968444 -0.997134 -0.964674 -0.989992 0.345126 0.20483 0.194548 0.0707372 -0.717139 -0.706496 -0.616001 -0.591891 -0.587139 -0.471663 -0.559187 -0.428335 311.231 303.915 274.497 268.041 -0.214741 -0.0773045 -0.137205 0.0185315 -3.64101 -1.96669 -4.30383 -2.40658 -2.40658 -0.465812 -2.89604 -0.696867 -0.873448 -0.980379 -0.947909 -1.06908 312.044 288.326 275.22 254.289 -1.91505 -2.14142 -2.26448 -2.521 177.119 149.199 156.141 131.502 -1.11105 -1.03732 -1.04449 -0.97858 -0.954149 -1.04449 -0.898853 -0.97858 28.0845 31.7352 26.9621 30.4634 1.83595 1.99171 -1.81458 -2.14488 13.3392 14.9372 12.6086 14.1094 0.0933232 0.723397 -0.0417493 0.672218 8.70443 2.7389 7.70082 2.43626 104.8 76.4513 92.3198 67.3023 4.04872 1.56191 3.71189 1.51729 72.023 64.887 63.4792 57.1816 16.4298 14.8375 14.6381 13.2329 11.3676 12.8363 6.83555 7.70082 82.9672 94.8455 94.1734 107.633 5.85128 4.43989 5.32927 4.08372 64.3873 73.6381 73.0899 83.5724 5.11694 5.65076 4.71435 5.19456 1.34918 1.52396 1.0935 1.23424 15.5587 17.5416 12.3695 13.9278 13.8264 11.012 12.3138 9.83012 -1.78079 -1.84961 -1.54659 -1.60733 10.9934 8.80153 9.84053 7.90623 5.13391 5.7253 5.64566 6.31579 69.7788 79.229 55.4862 63.0333 129.987 128.965 114.585 113.683 -3.74272 -4.41288 -4.27003 -5.0104 -2.6309 -3.14212 -3.16093 -3.74272 -10.27 -6.25348 -11.7047 -7.15343 11.3608 11.1105 10.1918 9.97086 3.95845 3.88673 3.53854 3.47525 -24.3324 -8.08261 -27.413 -8.99952 -3.41719 -4.01968 -3.69546 -4.33501 2.07689 2.39526 2.01357 2.32351 -0.0144217 -0.0695461 0.185547 0.106926 -1.50358 -1.81778 -1.86786 -2.23057 2.7389 -3.27981 2.43626 -2.87523 -0.0417493 0.672218 -0.208225 0.600806 78.0199 72.023 68.7714 63.4792 41.6149 47.1576 38.405 43.5203 -2.31957 -2.72287 -2.14142 -2.521 -1.11105 -1.04449 -1.21715 -1.14173 -1.24356 -1.50358 -1.56503 -1.86786 8.19823 7.64043 7.3938 6.90155 3.76977 2.62389 3.49048 2.47925 10.0913 11.3676 6.09175 6.83555 -1.03264 -1.24356 -1.31635 -1.56503 4.67267 5.19456 5.13391 5.7253 4.46052 3.49048 4.09528 3.23923 6.44613 4.84681 5.85128 4.43989 1.12015 1.19588 0.73539 0.759888 3.18823 3.46524 2.59987 2.79854 3.46524 3.76571 2.79854 3.01025 2.04957 2.22802 1.62802 1.75034 3.18823 2.59987 2.92989 2.41067 2.68623 2.92989 2.22802 2.41067 -2.4776 -1.75953 -2.97931 -2.16563 -0.706496 -0.714637 -0.591891 -0.584773 -107.038 -148.555 -94.6189 -131.258 312.044 353.763 288.326 326.886 -0.968444 -0.991262 -0.997134 -1.02377 -0.745406 -0.714637 -0.873448 -0.827634 -1.65764 -1.30397 -0.642116 -0.407773 -0.471663 -0.346881 -0.428335 -0.286939 -11.7047 -7.15343 -13.3081 -8.15078 -0.587139 -0.559187 -0.691508 -0.677452 9.97086 9.60648 8.96292 8.64137 -3.41719 -3.69546 -2.89937 -3.14494 3.88673 3.76843 3.47525 3.37085 1.47042 1.48818 -0.253972 -0.465812 0.596051 0.390103 0.469195 0.287445 4.66112 5.16774 4.4518 4.93055 44.165 50.0472 41.6149 47.1576 -1.30084 -1.4789 -1.19279 -1.35646 -1.16443 -1.23249 -1.30084 -1.37796 30.4634 34.4522 28.7108 32.4662 26.9621 30.4634 25.4154 28.7108 23.8899 22.525 21.1948 19.9903 14.9372 16.7571 14.1094 15.819 131.502 104.8 115.884 92.3198 -0.0144217 0.185547 0.025495 0.25209 -2.83447 -3.32587 -2.9346 -3.43934 72.023 81.7243 64.887 73.6381 6.83555 7.70082 2.1896 2.43626 14.5237 16.4592 8.70443 9.86514 23.4685 26.5046 21.1518 23.8794 59.2309 36.2153 52.113 31.8018 115.884 92.3198 102.104 81.3088 3.49048 2.47925 3.23923 2.34682 16.4233 14.6056 18.7623 16.6698 0.0475263 0.304292 0.049 0.339953 8.80153 6.47454 7.90623 5.85267 45.8391 52.113 27.9145 31.8018 1.59444 1.80188 1.34918 1.52396 12.3695 13.9278 8.98378 10.0913 7.1264 7.90623 5.31413 5.85267 6.44613 7.1264 4.84681 5.31413 1.75034 1.8694 1.26066 1.31452 1.19588 1.26066 0.759888 0.766618 2.59987 1.98653 2.41067 1.8694 1.53143 1.82126 1.52141 1.80991 16.0243 17.9889 15.9022 17.8506 101.007 114.585 100.211 113.683 -0.471663 -0.526266 -0.346881 -0.416147 -0.745406 -0.802819 -0.598251 -0.63607 -0.73971 -0.0417493 -0.999118 -0.208225 -1.62523 -1.82501 -1.91505 -2.14142 2.62389 1.44921 2.47925 1.4426 2.78527 1.45418 2.62389 1.44921 14.1094 15.819 13.0673 14.6381 3.60541 4.01205 3.40021 3.77952 2.47925 1.4426 2.34682 1.43198 25.4154 28.7108 23.4685 26.5046 -2.44671 -2.52087 -2.86694 -2.95097 1.1742 1.34918 0.94856 1.0935 4.84681 3.17957 4.43989 2.96855 -2.52087 -2.54088 -2.95097 -2.97364 12.3695 8.98378 11.012 8.02408 82.9672 73.0899 94.8455 83.5724 2.87668 2.58388 3.15603 2.83041 2.79854 3.01025 2.10353 2.2227 23.5884 26.6843 19.8099 22.4027 2.59987 2.79854 1.98653 2.10353 1.25782 1.24898 1 0.992198 2.79864 3.16642 2.78212 3.1477 28.993 32.7647 28.765 32.5063 47.5133 53.8413 47.1374 53.4154 243.986 242.077 215.151 213.467 -0.891076 -1.01458 -0.702125 -0.800466 -11.7047 -13.3081 -16.0806 -18.2666 227.814 260.102 258.317 294.905 153.113 173.67 111.866 126.931 -8.98495 -5.44041 -10.27 -6.25348 0.851019 1.07046 0.736917 0.941166 9.15789 8.96292 8.2407 8.06865 -0.997134 -1.02377 -1.00832 -1.03644 -7.83327 -6.80076 -4.70522 -4.04027 -2.04447 -1.41077 -2.4776 -1.75953 0.613262 0.801046 0.481982 0.652286 -0.891076 -1.05549 -1.01458 -1.20088 -0.860606 -0.869065 -0.922697 -0.939424 -27.9407 -24.7385 -17.0227 -15.1035 -31.5494 -19.1778 -35.6207 -21.6017 -8.98495 -7.83327 -5.44041 -4.70522 200.887 177.119 229.382 202.265 46.0154 52.144 44.165 50.0472 -1.67407 -1.11484 -2.04447 -1.41077 -0.559187 -0.547715 -0.677452 -0.681726 1.45418 0.111226 1.44921 0.264055 2.1896 2.43626 -2.49778 -2.87523 -1.16443 -1.30084 -1.06908 -1.19279 1.56191 -0.947057 1.51729 -0.696867 -0.954149 -0.898853 -0.841437 -0.799385 1.44921 0.264055 1.4426 0.3967 4.67573 -5.24745 4.06407 -4.6931 44.165 41.6149 38.9946 36.7442 -1.15962 -1.16907 -1.27218 -1.28289 -1.70408 -1.4789 -1.8031 -1.56628 -1.12459 -1.15962 -1.23249 -1.27218 6.09175 6.83555 1.99171 2.1896 78.0199 88.5197 72.023 81.7243 3.60541 3.40021 3.22699 3.0459 4.01205 4.4518 3.77952 4.18831 0.025495 0.0475263 -0.192367 -0.199344 -1.8031 -1.56628 -1.86085 -1.61725 2.22464 2.53948 2.10018 2.39845 5.45526 5.11694 4.93055 4.63198 0.94856 1.0935 0.717252 0.831389 2.2227 2.34682 1.41535 1.43198 2.10018 2.39845 1.95207 2.23062 81.7243 92.7353 73.6381 83.5724 2.87668 3.15603 3.18628 3.50283 11.012 8.02408 9.83012 7.1933 0.275916 0.766618 0.198652 0.7