# vtk DataFile Version 3.0
#This file was generated by the deal.II library on 2025/5/6 at 11:44:10
ASCII
DATASET UNSTRUCTURED_GRID

POINTS 96 double
0 0 -1
-0.707107 1.58785e-12 -0.707107
1.58785e-12 0.707107 -0.707107
-0.57735 0.57735 -0.57735
0.707107 -1.58785e-12 -0.707107
0 0 -1
0.57735 0.57735 -0.57735
1.58785e-12 0.707107 -0.707107
-1.58785e-12 -0.707107 -0.707107
-0.57735 -0.57735 -0.57735
0 0 -1
-0.707107 1.58785e-12 -0.707107
0.57735 -0.57735 -0.57735
-1.58785e-12 -0.707107 -0.707107
0.707107 -1.58785e-12 -0.707107
0 0 -1
-1.58785e-12 -0.707107 0.707107
0 0 1
-0.57735 -0.57735 0.57735
-0.707107 1.58785e-12 0.707107
0 0 1
1.58785e-12 0.707107 0.707107
-0.707107 1.58785e-12 0.707107
-0.57735 0.57735 0.57735
0.57735 -0.57735 0.57735
0.707107 -1.58785e-12 0.707107
-1.58785e-12 -0.707107 0.707107
0 0 1
0.707107 -1.58785e-12 0.707107
0.57735 0.57735 0.57735
0 0 1
1.58785e-12 0.707107 0.707107
-1.94472e-12 -1 -1.94472e-12
-0.707107 -0.707107 -1.58785e-12
-1.58785e-12 -0.707107 -0.707107
-0.57735 -0.57735 -0.57735
-1.58785e-12 -0.707107 0.707107
-0.57735 -0.57735 0.57735
-1.94472e-12 -1 -1.94472e-12
-0.707107 -0.707107 -1.58785e-12
0.707107 -0.707107 -1.58785e-12
-1.94472e-12 -1 -1.94472e-12
0.57735 -0.57735 -0.57735
-1.58785e-12 -0.707107 -0.707107
0.57735 -0.57735 0.57735
-1.58785e-12 -0.707107 0.707107
0.707107 -0.707107 -1.58785e-12
-1.94472e-12 -1 -1.94472e-12
0.707107 0.707107 -1.58785e-12
0.57735 0.57735 -0.57735
1.94472e-12 1 -1.94472e-12
1.58785e-12 0.707107 -0.707107
0.57735 0.57735 0.57735
0.707107 0.707107 -1.58785e-12
1.58785e-12 0.707107 0.707107
1.94472e-12 1 -1.94472e-12
1.94472e-12 1 -1.94472e-12
1.58785e-12 0.707107 -0.707107
-0.707107 0.707107 -1.58785e-12
-0.57735 0.57735 -0.57735
1.58785e-12 0.707107 0.707107
1.94472e-12 1 -1.94472e-12
-0.57735 0.57735 0.57735
-0.707107 0.707107 -1.58785e-12
-1 1.94472e-12 -1.94472e-12
-0.707107 0.707107 -1.58785e-12
-0.707107 1.58785e-12 -0.707107
-0.57735 0.57735 -0.57735
-0.707107 1.58785e-12 0.707107
-0.57735 0.57735 0.57735
-1 1.94472e-12 -1.94472e-12
-0.707107 0.707107 -1.58785e-12
-0.707107 -0.707107 -1.58785e-12
-1 1.94472e-12 -1.94472e-12
-0.57735 -0.57735 -0.57735
-0.707107 1.58785e-12 -0.707107
-0.57735 -0.57735 0.57735
-0.707107 1.58785e-12 0.707107
-0.707107 -0.707107 -1.58785e-12
-1 1.94472e-12 -1.94472e-12
0.707107 -0.707107 -1.58785e-12
0.57735 -0.57735 -0.57735
1 -1.94472e-12 -1.94472e-12
0.707107 -1.58785e-12 -0.707107
0.57735 -0.57735 0.57735
0.707107 -0.707107 -1.58785e-12
0.707107 -1.58785e-12 0.707107
1 -1.94472e-12 -1.94472e-12
1 -1.94472e-12 -1.94472e-12
0.707107 -1.58785e-12 -0.707107
0.707107 0.707107 -1.58785e-12
0.57735 0.57735 -0.57735
0.707107 -1.58785e-12 0.707107
1 -1.94472e-12 -1.94472e-12
0.57735 0.57735 0.57735
0.707107 0.707107 -1.58785e-12

CELLS 24 120
4	0	1	3	2
4	4	5	7	6
4	8	9	11	10
4	12	13	15	14
4	16	17	19	18
4	20	21	23	22
4	24	25	27	26
4	28	29	31	30
4	32	33	35	34
4	36	37	39	38
4	40	41	43	42
4	44	45	47	46
4	48	49	51	50
4	52	53	55	54
4	56	57	59	58
4	60	61	63	62
4	64	65	67	66
4	68	69	71	70
4	72	73	75	74
4	76	77	79	78
4	80	81	83	82
4	84	85	87	86
4	88	89	91	90
4	92	93	95	94

CELL_TYPES 24
 9 9 9 9 9 9 9 9 9 9 9 9 9 9 9 9 9 9 9 9 9 9 9 9
POINT_DATA 96
SCALARS phi double 1
LOOKUP_TABLE default
0.162407 0.165325 0.165325 0.165653 0.165325 0.162407 0.165653 0.165325 0.165325 0.165653 0.162407 0.165325 0.165653 0.165325 0.165325 0.162407 0.165325 0.162407 0.165653 0.165325 0.162407 0.165325 0.165325 0.165653 0.165653 0.165325 0.165325 0.162407 0.165325 0.165653 0.162407 0.165325 0.162407 0.165325 0.165325 0.165653 0.165325 0.165653 0.162407 0.165325 0.165325 0.162407 0.165653 0.165325 0.165653 0.165325 0.165325 0.162407 0.165325 0.165653 0.162407 0.165325 0.165653 0.165325 0.165325 0.162407 0.162407 0.165325 0.165325 0.165653 0.165325 0.162407 0.165653 0.165325 0.162407 0.165325 0.165325 0.165653 0.165325 0.165653 0.162407 0.165325 0.165325 0.162407 0.165653 0.165325 0.165653 0.165325 0.165325 0.162407 0.165325 0.165653 0.162407 0.165325 0.165653 0.165325 0.165325 0.162407 0.162407 0.165325 0.165325 0.165653 0.165325 0.162407 0.165653 0.165325 
SCALARS phi_n double 1
LOOKUP_TABLE default
-0.466741 -0.471117 -0.471117 -0.47161 -0.471117 -0.466741 -0.47161 -0.471117 -0.471117 -0.47161 -0.466741 -0.471117 -0.47161 -0.471117 -0.471117 -0.466741 -0.471117 -0.466741 -0.47161 -0.471117 -0.466741 -0.471117 -0.471117 -0.47161 -0.47161 -0.471117 -0.471117 -0.466741 -0.471117 -0.47161 -0.466741 -0.471117 -0.466741 -0.471117 -0.471117 -0.47161 -0.471117 -0.47161 -0.466741 -0.471117 -0.471117 -0.466741 -0.47161 -0.471117 -0.47161 -0.471117 -0.471117 -0.466741 -0.471117 -0.47161 -0.466741 -0.471117 -0.47161 -0.471117 -0.471117 -0.466741 -0.466741 -0.471117 -0.471117 -0.47161 -0.471117 -0.466741 -0.47161 -0.471117 -0.466741 -0.471117 -0.471117 -0.47161 -0.471117 -0.47161 -0.466741 -0.471117 -0.471117 -0.466741 -0.47161 -0.471117 -0.47161 -0.471117 -0.471117 -0.466741 -0.471117 -0.47161 -0.466741 -0.471117 -0.47161 -0.471117 -0.471117 -0.466741 -0.466741 -0.471117 -0.471117 -0.47161 -0.471117 -0.466741 -0.47161 -0.471117 
SCALARS alpha double 1
LOOKUP_TABLE default
0.732677 0.71059 0.71059 0.730694 0.71059 0.732677 0.730694 0.71059 0.71059 0.730694 0.732677 0.71059 0.730694 0.71059 0.71059 0.732677 0.71059 0.732677 0.730694 0.71059 0.732677 0.71059 0.71059 0.730694 0.730694 0.71059 0.71059 0.732677 0.71059 0.730694 0.732677 0.71059 0.732677 0.71059 0.71059 0.730694 0.71059 0.730694 0.732677 0.71059 0.71059 0.732677 0.730694 0.71059 0.730694 0.71059 0.71059 0.732677 0.71059 0.730694 0.732677 0.71059 0.730694 0.71059 0.71059 0.732677 0.732677 0.71059 0.71059 0.730694 0.71059 0.732677 0.730694 0.71059 0.732677 0.71059 0.71059 0.730694 0.71059 0.730694 0.732677 0.71059 0.71059 0.732677 0.730694 0.71059 0.730694 0.71059 0.71059 0.732677 0.71059 0.730694 0.732677 0.71059 0.730694 0.71059 0.71059 0.732677 0.732677 0.71059 0.71059 0.730694 0.71059 0.732677 0.730694 0.71059 
SCALARS beta double 1
LOOKUP_TABLE default
1.5 1.5 1.5 1.5 1.5 1.5 1.5 1.5 1.5 1.5 1.5 1.5 1.5 1.5 1.5 1.5 1.5 1.5 1.5 1.5 1.5 1.5 1.5 1.5 1.5 1.5 1.5 1.5 1.5 1.5 1.5 1.5 1.5 1.5 1.5 1.5 1.5 1.5 1.5 1.5 1.5 1.5 1.5 1.5 1.5 1.5 1.5 1.5 1.5 1.5 1.5 1.5 1.5 1.5 1.5 1.5 1.5 1.5 1.5 1.5 1.5 1.5 1.5 1.5 1.5 1.5 1.5 1.5 1.5 1.5 1.5 1.5 1.5 1.5 1.5 1.5 1.5 1.5 1.5 1.5 1.5 1.5 1.5 1.5 1.5 1.5 1.5 1.5 1.5 1.5 1.5 1.5 1.5 1.5 1.5 1.5 
SCALARS g double 1
LOOKUP_TABLE default
-0.22313 -0.22313 -0.22313 -0.22313 -0.22313 -0.22313 -0.22313 -0.22313 -0.22313 -0.22313 -0.22313 -0.22313 -0.22313 -0.22313 -0.22313 -0.22313 -0.22313 -0.22313 -0.22313 -0.22313 -0.22313 -0.22313 -0.22313 -0.22313 -0.22313 -0.22313 -0.22313 -0.22313 -0.22313 -0.22313 -0.22313 -0.22313 -0.22313 -0.22313 -0.22313 -0.22313 -0.22313 -0.22313 -0.22313 -0.22313 -0.22313 -0.22313 -0.22313 -0.22313 -0.22313 -0.22313 -0.22313 -0.22313 -0.22313 -0.22313 -0.22313 -0.22313 -0.22313 -0.22313 -0.22313 -0.22313 -0.22313 -0.22313 -0.22313 -0.22313 -0.22313 -0.22313 -0.22313 -0.22313 -0.22313 -0.22313 -0.22313 -0.22313 -0.22313 -0.22313 -0.22313 -0.22313 -0.22313 -0.22313 -0.22313 -0.22313 -0.22313 -0.22313 -0.22313 -0.22313 -0.22313 -0.22313 -0.22313 -0.22313 -0.22313 -0.22313 -0.22313 -0.22313 -0.22313 -0.22313 -0.22313 -0.22313 -0.22313 -0.22313 -0.22313 -0.22313 
SCALARS boundary_type double 1
LOOKUP_TABLE default
2 2 2 2 2 2 2 2 2 2 2 2 2 2 2 2 2 2 2 2 2 2 2 2 2 2 2 2 2 2 2 2 2 2 2 2 2 2 2 2 2 2 2 2 2 2 2 2 2 2 2 2 2 2 2 2 2 2 2 2 2 2 2 2 2 2 2 2 2 2 2 2 2 2 2 2 2 2 2 2 2 2 2 2 2 2 2 2 2 2 2 2 2 2 2 2 
SCALARS phi_exact double 1
LOOKUP_TABLE default
0.22313 0.22313 0.22313 0.22313 0.22313 0.22313 0.22313 0.22313 0.22313 0.22313 0.22313 0.22313 0.22313 0.22313 0.22313 0.22313 0.22313 0.22313 0.22313 0.22313 0.22313 0.22313 0.22313 0.22313 0.22313 0.22313 0.22313 0.22313 0.22313 0.22313 0.22313 0.22313 0.22313 0.22313 0.22313 0.22313 0.22313 0.22313 0.22313 0.22313 0.22313 0.22313 0.22313 0.22313 0.22313 0.22313 0.22313 0.22313 0.22313 0.22313 0.22313 0.22313 0.22313 0.22313 0.22313 0.22313 0.22313 0.22313 0.22313 0.22313 0.22313 0.22313 0.22313 0.22313 0.22313 0.22313 0.22313 0.22313 0.22313 0.22313 0.22313 0.22313 0.22313 0.22313 0.22313 0.22313 0.22313 0.22313 0.22313 0.22313 0.22313 0.22313 0.22313 0.22313 0.22313 0.22313 0.22313 0.22313 0.22313 0.22313 0.22313 0.22313 0.22313 0.22313 0.22313 0.22313 
SCALARS phi_n_exact double 1
LOOKUP_TABLE default
-0.557825 -0.557825 -0.557825 -0.557825 -0.557825 -0.557825 -0.557825 -0.557825 -0.557825 -0.557825 -0.557825 -0.557825 -0.557825 -0.557825 -0.557825 -0.557825 -0.557825 -0.557825 -0.557825 -0.557825 -0.557825 -0.557825 -0.557825 -0.557825 -0.557825 -0.557825 -0.557825 -0.557825 -0.557825 -0.557825 -0.557825 -0.557825 -0.557825 -0.557825 -0.557825 -0.557825 -0.557825 -0.557825 -0.557825 -0.557825 -0.557825 -0.557825 -0.557825 -0.557825 -0.557825 -0.557825 -0.557825 -0.557825 -0.557825 -0.557825 -0.557825 -0.557825 -0.557825 -0.557825 -0.557825 -0.557825 -0.557825 -0.557825 -0.557825 -0.557825 -0.557825 -0.557825 -0.557825 -0.557825 -0.557825 -0.557825 -0.557825 -0.557825 -0.557825 -0.557825 -0.557825 -0.557825 -0.557825 -0.557825 -0.557825 -0.557825 -0.557825 -0.557825 -0.557825 -0.557825 -0.557825 -0.557825 -0.557825 -0.557825 -0.557825 -0.557825 -0.557825 -0.557825 -0.557825 -0.557825 -0.557825 -0.557825 -0.557825 -0.557825 -0.557825 -0.557825 
