# vtk DataFile Version 3.0
#This file was generated by the deal.II library on 2025/5/11 at 15:53:08
ASCII
DATASET UNSTRUCTURED_GRID

POINTS 864 double
-0.435087 0.435087 -0.788289
-0.65263 0.3849 -0.65263
-0.3849 0.65263 -0.65263
-0.57735 0.57735 -0.57735
-0.217543 0.462592 -0.859467
-0.435087 0.435087 -0.788289
-0.19245 0.693889 -0.693889
-0.3849 0.65263 -0.65263
1.19658e-12 0.471405 -0.881917
-0.217543 0.462592 -0.859467
1.58785e-12 0.707107 -0.707107
-0.19245 0.693889 -0.693889
0.217543 0.462592 -0.859467
1.19658e-12 0.471405 -0.881917
0.19245 0.693889 -0.693889
1.58785e-12 0.707107 -0.707107
0.435087 0.435087 -0.788289
0.217543 0.462592 -0.859467
0.3849 0.65263 -0.65263
0.19245 0.693889 -0.693889
0.65263 0.3849 -0.65263
0.435087 0.435087 -0.788289
0.57735 0.57735 -0.57735
0.3849 0.65263 -0.65263
-0.462592 0.217543 -0.859467
-0.693889 0.19245 -0.693889
-0.435087 0.435087 -0.788289
-0.65263 0.3849 -0.65263
-0.231296 0.231296 -0.944989
-0.462592 0.217543 -0.859467
-0.217543 0.462592 -0.859467
-0.435087 0.435087 -0.788289
6.36134e-13 0.235702 -0.971825
-0.231296 0.231296 -0.944989
1.19658e-12 0.471405 -0.881917
-0.217543 0.462592 -0.859467
0.231296 0.231296 -0.944989
6.36134e-13 0.235702 -0.971825
0.217543 0.462592 -0.859467
1.19658e-12 0.471405 -0.881917
0.462592 0.217543 -0.859467
0.231296 0.231296 -0.944989
0.435087 0.435087 -0.788289
0.217543 0.462592 -0.859467
0.693889 0.19245 -0.693889
0.462592 0.217543 -0.859467
0.65263 0.3849 -0.65263
0.435087 0.435087 -0.788289
-0.471405 1.19659e-12 -0.881917
-0.707107 1.58785e-12 -0.707107
-0.462592 0.217543 -0.859467
-0.693889 0.19245 -0.693889
-0.235702 6.36121e-13 -0.971825
-0.471405 1.19659e-12 -0.881917
-0.231296 0.231296 -0.944989
-0.462592 0.217543 -0.859467
0 0 -1
-0.235702 6.36121e-13 -0.971825
6.36134e-13 0.235702 -0.971825
-0.231296 0.231296 -0.944989
0.235702 -6.36121e-13 -0.971825
0 0 -1
0.231296 0.231296 -0.944989
6.36134e-13 0.235702 -0.971825
0.471405 -1.19659e-12 -0.881917
0.235702 -6.36121e-13 -0.971825
0.462592 0.217543 -0.859467
0.231296 0.231296 -0.944989
0.707107 -1.58785e-12 -0.707107
0.471405 -1.19659e-12 -0.881917
0.693889 0.19245 -0.693889
0.462592 0.217543 -0.859467
-0.462592 -0.217543 -0.859467
-0.693889 -0.19245 -0.693889
-0.471405 1.19659e-12 -0.881917
-0.707107 1.58785e-12 -0.707107
-0.231296 -0.231296 -0.944989
-0.462592 -0.217543 -0.859467
-0.235702 6.36121e-13 -0.971825
-0.471405 1.19659e-12 -0.881917
-6.36095e-13 -0.235702 -0.971825
-0.231296 -0.231296 -0.944989
0 0 -1
-0.235702 6.36121e-13 -0.971825
0.231296 -0.231296 -0.944989
-6.36095e-13 -0.235702 -0.971825
0.235702 -6.36121e-13 -0.971825
0 0 -1
0.462592 -0.217543 -0.859467
0.231296 -0.231296 -0.944989
0.471405 -1.19659e-12 -0.881917
0.235702 -6.36121e-13 -0.971825
0.693889 -0.19245 -0.693889
0.462592 -0.217543 -0.859467
0.707107 -1.58785e-12 -0.707107
0.471405 -1.19659e-12 -0.881917
-0.435087 -0.435087 -0.788289
-0.65263 -0.3849 -0.65263
-0.462592 -0.217543 -0.859467
-0.693889 -0.19245 -0.693889
-0.217543 -0.462592 -0.859467
-0.435087 -0.435087 -0.788289
-0.231296 -0.231296 -0.944989
-0.462592 -0.217543 -0.859467
-1.19662e-12 -0.471405 -0.881917
-0.217543 -0.462592 -0.859467
-6.36095e-13 -0.235702 -0.971825
-0.231296 -0.231296 -0.944989
0.217543 -0.462592 -0.859467
-1.19662e-12 -0.471405 -0.881917
0.231296 -0.231296 -0.944989
-6.36095e-13 -0.235702 -0.971825
0.435087 -0.435087 -0.788289
0.217543 -0.462592 -0.859467
0.462592 -0.217543 -0.859467
0.231296 -0.231296 -0.944989
0.65263 -0.3849 -0.65263
0.435087 -0.435087 -0.788289
0.693889 -0.19245 -0.693889
0.462592 -0.217543 -0.859467
-0.3849 -0.65263 -0.65263
-0.57735 -0.57735 -0.57735
-0.435087 -0.435087 -0.788289
-0.65263 -0.3849 -0.65263
-0.19245 -0.693889 -0.693889
-0.3849 -0.65263 -0.65263
-0.217543 -0.462592 -0.859467
-0.435087 -0.435087 -0.788289
-1.58785e-12 -0.707107 -0.707107
-0.19245 -0.693889 -0.693889
-1.19662e-12 -0.471405 -0.881917
-0.217543 -0.462592 -0.859467
0.19245 -0.693889 -0.693889
-1.58785e-12 -0.707107 -0.707107
0.217543 -0.462592 -0.859467
-1.19662e-12 -0.471405 -0.881917
0.3849 -0.65263 -0.65263
0.19245 -0.693889 -0.693889
0.435087 -0.435087 -0.788289
0.217543 -0.462592 -0.859467
0.57735 -0.57735 -0.57735
0.3849 -0.65263 -0.65263
0.65263 -0.3849 -0.65263
0.435087 -0.435087 -0.788289
-0.3849 -0.65263 0.65263
-0.435087 -0.435087 0.788289
-0.57735 -0.57735 0.57735
-0.65263 -0.3849 0.65263
-0.435087 -0.435087 0.788289
-0.462592 -0.217543 0.859467
-0.65263 -0.3849 0.65263
-0.693889 -0.19245 0.693889
-0.462592 -0.217543 0.859467
-0.471405 1.19658e-12 0.881917
-0.693889 -0.19245 0.693889
-0.707107 1.58785e-12 0.707107
-0.471405 1.19658e-12 0.881917
-0.462592 0.217543 0.859467
-0.707107 1.58785e-12 0.707107
-0.693889 0.19245 0.693889
-0.462592 0.217543 0.859467
-0.435087 0.435087 0.788289
-0.693889 0.19245 0.693889
-0.65263 0.3849 0.65263
-0.435087 0.435087 0.788289
-0.3849 0.65263 0.65263
-0.65263 0.3849 0.65263
-0.57735 0.57735 0.57735
-0.19245 -0.693889 0.693889
-0.217543 -0.462592 0.859467
-0.3849 -0.65263 0.65263
-0.435087 -0.435087 0.788289
-0.217543 -0.462592 0.859467
-0.231296 -0.231296 0.944989
-0.435087 -0.435087 0.788289
-0.462592 -0.217543 0.859467
-0.231296 -0.231296 0.944989
-0.235702 6.36134e-13 0.971825
-0.462592 -0.217543 0.859467
-0.471405 1.19658e-12 0.881917
-0.235702 6.36134e-13 0.971825
-0.231296 0.231296 0.944989
-0.471405 1.19658e-12 0.881917
-0.462592 0.217543 0.859467
-0.231296 0.231296 0.944989
-0.217543 0.462592 0.859467
-0.462592 0.217543 0.859467
-0.435087 0.435087 0.788289
-0.217543 0.462592 0.859467
-0.19245 0.693889 0.693889
-0.435087 0.435087 0.788289
-0.3849 0.65263 0.65263
-1.58785e-12 -0.707107 0.707107
-1.19659e-12 -0.471405 0.881917
-0.19245 -0.693889 0.693889
-0.217543 -0.462592 0.859467
-1.19659e-12 -0.471405 0.881917
-6.36121e-13 -0.235702 0.971825
-0.217543 -0.462592 0.859467
-0.231296 -0.231296 0.944989
-6.36121e-13 -0.235702 0.971825
0 0 1
-0.231296 -0.231296 0.944989
-0.235702 6.36134e-13 0.971825
0 0 1
6.36121e-13 0.235702 0.971825
-0.235702 6.36134e-13 0.971825
-0.231296 0.231296 0.944989
6.36121e-13 0.235702 0.971825
1.19659e-12 0.471405 0.881917
-0.231296 0.231296 0.944989
-0.217543 0.462592 0.859467
1.19659e-12 0.471405 0.881917
1.58785e-12 0.707107 0.707107
-0.217543 0.462592 0.859467
-0.19245 0.693889 0.693889
0.19245 -0.693889 0.693889
0.217543 -0.462592 0.859467
-1.58785e-12 -0.707107 0.707107
-1.19659e-12 -0.471405 0.881917
0.217543 -0.462592 0.859467
0.231296 -0.231296 0.944989
-1.19659e-12 -0.471405 0.881917
-6.36121e-13 -0.235702 0.971825
0.231296 -0.231296 0.944989
0.235702 -6.36095e-13 0.971825
-6.36121e-13 -0.235702 0.971825
0 0 1
0.235702 -6.36095e-13 0.971825
0.231296 0.231296 0.944989
0 0 1
6.36121e-13 0.235702 0.971825
0.231296 0.231296 0.944989
0.217543 0.462592 0.859467
6.36121e-13 0.235702 0.971825
1.19659e-12 0.471405 0.881917
0.217543 0.462592 0.859467
0.19245 0.693889 0.693889
1.19659e-12 0.471405 0.881917
1.58785e-12 0.707107 0.707107
0.3849 -0.65263 0.65263
0.435087 -0.435087 0.788289
0.19245 -0.693889 0.693889
0.217543 -0.462592 0.859467
0.435087 -0.435087 0.788289
0.462592 -0.217543 0.859467
0.217543 -0.462592 0.859467
0.231296 -0.231296 0.944989
0.462592 -0.217543 0.859467
0.471405 -1.19662e-12 0.881917
0.231296 -0.231296 0.944989
0.235702 -6.36095e-13 0.971825
0.471405 -1.19662e-12 0.881917
0.462592 0.217543 0.859467
0.235702 -6.36095e-13 0.971825
0.231296 0.231296 0.944989
0.462592 0.217543 0.859467
0.435087 0.435087 0.788289
0.231296 0.231296 0.944989
0.217543 0.462592 0.859467
0.435087 0.435087 0.788289
0.3849 0.65263 0.65263
0.217543 0.462592 0.859467
0.19245 0.693889 0.693889
0.57735 -0.57735 0.57735
0.65263 -0.3849 0.65263
0.3849 -0.65263 0.65263
0.435087 -0.435087 0.788289
0.65263 -0.3849 0.65263
0.693889 -0.19245 0.693889
0.435087 -0.435087 0.788289
0.462592 -0.217543 0.859467
0.693889 -0.19245 0.693889
0.707107 -1.58785e-12 0.707107
0.462592 -0.217543 0.859467
0.471405 -1.19662e-12 0.881917
0.707107 -1.58785e-12 0.707107
0.693889 0.19245 0.693889
0.471405 -1.19662e-12 0.881917
0.462592 0.217543 0.859467
0.693889 0.19245 0.693889
0.65263 0.3849 0.65263
0.462592 0.217543 0.859467
0.435087 0.435087 0.788289
0.65263 0.3849 0.65263
0.57735 0.57735 0.57735
0.435087 0.435087 0.788289
0.3849 0.65263 0.65263
-0.435087 -0.788289 -0.435087
-0.65263 -0.65263 -0.3849
-0.3849 -0.65263 -0.65263
-0.57735 -0.57735 -0.57735
-0.462592 -0.859467 -0.217543
-0.693889 -0.693889 -0.19245
-0.435087 -0.788289 -0.435087
-0.65263 -0.65263 -0.3849
-0.471405 -0.881917 -1.79493e-12
-0.707107 -0.707107 -1.58785e-12
-0.462592 -0.859467 -0.217543
-0.693889 -0.693889 -0.19245
-0.462592 -0.859467 0.217543
-0.693889 -0.693889 0.19245
-0.471405 -0.881917 -1.79493e-12
-0.707107 -0.707107 -1.58785e-12
-0.435087 -0.788289 0.435087
-0.65263 -0.65263 0.3849
-0.462592 -0.859467 0.217543
-0.693889 -0.693889 0.19245
-0.3849 -0.65263 0.65263
-0.57735 -0.57735 0.57735
-0.435087 -0.788289 0.435087
-0.65263 -0.65263 0.3849
-0.217543 -0.859467 -0.462592
-0.435087 -0.788289 -0.435087
-0.19245 -0.693889 -0.693889
-0.3849 -0.65263 -0.65263
-0.231296 -0.944989 -0.231296
-0.462592 -0.859467 -0.217543
-0.217543 -0.859467 -0.462592
-0.435087 -0.788289 -0.435087
-0.235702 -0.971825 -1.90832e-12
-0.471405 -0.881917 -1.79493e-12
-0.231296 -0.944989 -0.231296
-0.462592 -0.859467 -0.217543
-0.231296 -0.944989 0.231296
-0.462592 -0.859467 0.217543
-0.235702 -0.971825 -1.90832e-12
-0.471405 -0.881917 -1.79493e-12
-0.217543 -0.859467 0.462592
-0.435087 -0.788289 0.435087
-0.231296 -0.944989 0.231296
-0.462592 -0.859467 0.217543
-0.19245 -0.693889 0.693889
-0.3849 -0.65263 0.65263
-0.217543 -0.859467 0.462592
-0.435087 -0.788289 0.435087
-1.79491e-12 -0.881917 -0.471405
-0.217543 -0.859467 -0.462592
-1.58785e-12 -0.707107 -0.707107
-0.19245 -0.693889 -0.693889
-1.90832e-12 -0.971825 -0.235702
-0.231296 -0.944989 -0.231296
-1.79491e-12 -0.881917 -0.471405
-0.217543 -0.859467 -0.462592
-1.94472e-12 -1 -1.94472e-12
-0.235702 -0.971825 -1.90832e-12
-1.90832e-12 -0.971825 -0.235702
[...]
POINT_DATA 864
SCALARS phi double 1
LOOKUP_TABLE default
0.214856 0.214891 0.214891 0.21488 0.214854 0.214856 0.214826 0.214891 0.214846 0.214854 0.214797 0.214826 0.214854 0.214846 0.214826 0.214797 0.214856 0.214854 0.214891 0.214826 0.214891 0.214856 0.21488 0.214891 0.214854 0.214826 0.214856 0.214891 0.214966 0.214854 0.214854 0.214856 0.214996 0.214966 0.214846 0.214854 0.214966 0.214996 0.214854 0.214846 0.214854 0.214966 0.214856 0.214854 0.214826 0.214854 0.214891 0.214856 0.214846 0.214797 0.214854 0.214826 0.214996 0.214846 0.214966 0.214854 0.215039 0.214996 0.214996 0.214966 0.214996 0.215039 0.214966 0.214996 0.214846 0.214996 0.214854 0.214966 0.214797 0.214846 0.214826 0.214854 0.214854 0.214826 0.214846 0.214797 0.214966 0.214854 0.214996 0.214846 0.214996 0.214966 0.215039 0.214996 0.214966 0.214996 0.214996 0.215039 0.214854 0.214966 0.214846 0.214996 0.214826 0.214854 0.214797 0.214846 0.214856 0.214891 0.214854 0.214826 0.214854 0.214856 0.214966 0.214854 0.214846 0.214854 0.214996 0.214966 0.214854 0.214846 0.214966 0.214996 0.214856 0.214854 0.214854 0.214966 0.214891 0.214856 0.214826 0.214854 0.214891 0.21488 0.214856 0.214891 0.214826 0.214891 0.214854 0.214856 0.214797 0.214826 0.214846 0.214854 0.214826 0.214797 0.214854 0.214846 0.214891 0.214826 0.214856 0.214854 0.21488 0.214891 0.214891 0.214856 0.214891 0.214856 0.21488 0.214891 0.214856 0.214854 0.214891 0.214826 0.214854 0.214846 0.214826 0.214797 0.214846 0.214854 0.214797 0.214826 0.214854 0.214856 0.214826 0.214891 0.214856 0.214891 0.214891 0.21488 0.214826 0.214854 0.214891 0.214856 0.214854 0.214966 0.214856 0.214854 0.214966 0.214996 0.214854 0.214846 0.214996 0.214966 0.214846 0.214854 0.214966 0.214854 0.214854 0.214856 0.214854 0.214826 0.214856 0.214891 0.214797 0.214846 0.214826 0.214854 0.214846 0.214996 0.214854 0.214966 0.214996 0.215039 0.214966 0.214996 0.215039 0.214996 0.214996 0.214966 0.214996 0.214846 0.214966 0.214854 0.214846 0.214797 0.214854 0.214826 0.214826 0.214854 0.214797 0.214846 0.214854 0.214966 0.214846 0.214996 0.214966 0.214996 0.214996 0.215039 0.214996 0.214966 0.215039 0.214996 0.214966 0.214854 0.214996 0.214846 0.214854 0.214826 0.214846 0.214797 0.214891 0.214856 0.214826 0.214854 0.214856 0.214854 0.214854 0.214966 0.214854 0.214846 0.214966 0.214996 0.214846 0.214854 0.214996 0.214966 0.214854 0.214856 0.214966 0.214854 0.214856 0.214891 0.214854 0.214826 0.21488 0.214891 0.214891 0.214856 0.214891 0.214826 0.214856 0.214854 0.214826 0.214797 0.214854 0.214846 0.214797 0.214826 0.214846 0.214854 0.214826 0.214891 0.214854 0.214856 0.214891 0.21488 0.214856 0.214891 0.214856 0.214891 0.214891 0.21488 0.214854 0.214826 0.214856 0.214891 0.214846 0.214797 0.214854 0.214826 0.214854 0.214826 0.214846 0.214797 0.214856 0.214891 0.214854 0.214826 0.214891 0.21488 0.214856 0.214891 0.214854 0.214856 0.214826 0.214891 0.214966 0.214854 0.214854 0.214856 0.214996 0.214846 0.214966 0.214854 0.214966 0.214854 0.214996 0.214846 0.214854 0.214856 0.214966 0.214854 0.214826 0.214891 0.214854 0.214856 0.214846 0.214854 0.214797 0.214826 0.214996 0.214966 0.214846 0.214854 0.215039 0.214996 0.214996 0.214966 0.214996 0.214966 0.215039 0.214996 0.214846 0.214854 0.214996 0.214966 0.214797 0.214826 0.214846 0.214854 0.214854 0.214846 0.214826 0.214797 0.214966 0.214996 0.214854 0.214846 0.214996 0.215039 0.214966 0.214996 0.214966 0.214996 0.214996 0.215039 0.214854 0.214846 0.214966 0.214996 0.214826 0.214797 0.214854 0.214846 0.214856 0.214854 0.214891 0.214826 0.214854 0.214966 0.214856 0.214854 0.214846 0.214996 0.214854 0.214966 0.214854 0.214966 0.214846 0.214996 0.214856 0.214854 0.214854 0.214966 0.214891 0.214826 0.214856 0.214854 0.214891 0.214856 0.21488 0.214891 0.214826 0.214854 0.214891 0.214856 0.214797 0.214846 0.214826 0.214854 0.214826 0.214854 0.214797 0.214846 0.214891 0.214856 0.214826 0.214854 0.21488 0.214891 0.214891 0.214856 0.214891 0.21488 0.214856 0.214891 0.214826 0.214891 0.214854 0.214856 0.214797 0.214826 0.214846 0.214854 0.214826 0.214797 0.214854 0.214846 0.214891 0.214826 0.214856 0.214854 0.21488 0.214891 0.214891 0.214856 0.214856 0.214891 0.214854 0.214826 0.214854 0.214856 0.214966 0.214854 0.214846 0.214854 0.214996 0.214966 0.214854 0.214846 0.214966 0.214996 0.214856 0.214854 0.214854 0.214966 0.214891 0.214856 0.214826 0.214854 0.214854 0.214826 0.214846 0.214797 0.214966 0.214854 0.214996 0.214846 0.214996 0.214966 0.215039 0.214996 0.214966 0.214996 0.214996 0.215039 0.214854 0.214966 0.214846 0.214996 0.214826 0.214854 0.214797 0.214846 0.214846 0.214797 0.214854 0.214826 0.214996 0.214846 0.214966 0.214854 0.215039 0.214996 0.214996 0.214966 0.214996 0.215039 0.214966 0.214996 0.214846 0.214996 0.214854 0.214966 0.214797 0.214846 0.214826 0.214854 0.214854 0.214826 0.214856 0.214891 0.214966 0.214854 0.214854 0.214856 0.214996 0.214966 0.214846 0.214854 0.214966 0.214996 0.214854 0.214846 0.214854 0.214966 0.214856 0.214854 0.214826 0.214854 0.214891 0.214856 0.214856 0.214891 0.214891 0.21488 0.214854 0.214856 0.214826 0.214891 0.214846 0.214854 0.214797 0.214826 0.214854 0.214846 0.214826 0.214797 0.214856 0.214854 0.214891 0.214826 0.214891 0.214856 0.21488 0.214891 0.214856 0.214891 0.214891 0.21488 0.214854 0.214826 0.214856 0.214891 0.214846 0.214797 0.214854 0.214826 0.214854 0.214826 0.214846 0.214797 0.214856 0.214891 0.214854 0.214826 0.214891 0.21488 0.214856 0.214891 0.214854 0.214856 0.214826 0.214891 0.214966 0.214854 0.214854 0.214856 0.214996 0.214846 0.214966 0.214854 0.214966 0.214854 0.214996 0.214846 0.214854 0.214856 0.214966 0.214854 0.214826 0.214891 0.214854 0.214856 0.214846 0.214854 0.214797 0.214826 0.214996 0.214966 0.214846 0.214854 0.215039 0.214996 0.214996 0.214966 0.214996 0.214966 0.215039 0.214996 0.214846 0.214854 0.214996 0.214966 0.214797 0.214826 0.214846 0.214854 0.214854 0.214846 0.214826 0.214797 0.214966 0.214996 0.214854 0.214846 0.214996 0.215039 0.214966 0.214996 0.214966 0.214996 0.214996 0.215039 0.214854 0.214846 0.214966 0.214996 0.214826 0.214797 0.214854 0.214846 0.214856 0.214854 0.214891 0.214826 0.214854 0.214966 0.214856 0.214854 0.214846 0.214996 0.214854 0.214966 0.214854 0.214966 0.214846 0.214996 0.214856 0.214854 0.214854 0.214966 0.214891 0.214826 0.214856 0.214854 0.214891 0.214856 0.21488 0.214891 0.214826 0.214854 0.214891 0.214856 0.214797 0.214846 0.214826 0.214854 0.214826 0.214854 0.214797 0.214846 0.214891 0.214856 0.214826 0.214854 0.21488 0.214891 0.214891 0.214856 0.214891 0.21488 0.214856 0.214891 0.214826 0.214891 0.214854 0.214856 0.214797 0.214826 0.214846 0.214854 0.214826 0.214797 0.214854 0.214846 0.214891 0.214826 0.214856 0.214854 0.21488 0.214891 0.214891 0.214856 0.214856 0.214891 0.214854 0.214826 0.214854 0.214856 0.214966 0.214854 0.214846 0.214854 0.214996 0.214966 0.214854 0.214846 0.214966 0.214996 0.214856 0.214854 0.214854 0.214966 0.214891 0.214856 0.214826 0.214854 0.214854 0.214826 0.214846 0.214797 0.214966 0.214854 0.214996 0.214846 0.214996 0.214966 0.215039 0.214996 0.214966 0.214996 0.214996 0.215039 0.214854 0.214966 0.214846 0.214996 0.214826 0.214854 0.214797 0.214846 0.214846 0.214797 0.214854 0.214826 0.214996 0.214846 0.214966 0.214854 0.215039 0.214996 0.214996 0.214966 0.214996 0.215039 0.214966 0.214996 0.214846 0.214996 0.214854 0.214966 0.214797 0.214846 0.214826 0.214854 0.214854 0.214826 0.214856 0.214891 0.214966 0.214854 0.214854 0.214856 0.214996 0.214966 0.214846 0.214854 0.214966 0.214996 0.214854 0.214846 0.214854 0.214966 0.214856 0.214854 0.214826 0.214854 0.214891 0.214856 0.214856 0.214891 0.214891 0.21488 0.214854 0.214856 0.214826 0.214891 0.214846 0.214854 0.214797 0.214826 0.214854 0.214846 0.214826 0.214797 0.214856 0.214854 0.214891 0.214826 0.214891 0.214856 0.21488 0.214891 
SCALARS phi_n double 1
LOOKUP_TABLE default
-0.545414 -0.545467 -0.545467 -0.545451 -0.545412 -0.545414 -0.545368 -0.545467 -0.545399 -0.545412 -0.545325 -0.545368 -0.545412 -0.545399 -0.545368 -0.545325 -0.545414 -0.545412 -0.545467 -0.545368 -0.545467 -0.545414 -0.545451 -0.545467 -0.545412 -0.545368 -0.545414 -0.545467 -0.545579 -0.545412 -0.545412 -0.545414 -0.545624 -0.545579 -0.545399 -0.545412 -0.545579 -0.545624 -0.545412 -0.545399 -0.545412 -0.545579 -0.545414 -0.545412 -0.545368 -0.545412 -0.545467 -0.545414 -0.545399 -0.545325 -0.545412 -0.545368 -0.545624 -0.545399 -0.545579 -0.545412 -0.545689 -0.545624 -0.545624 -0.545579 -0.545624 -0.545689 -0.545579 -0.545624 -0.545399 -0.545624 -0.545412 -0.545579 -0.545325 -0.545399 -0.545368 -0.545412 -0.545412 -0.545368 -0.545399 -0.545325 -0.545579 -0.545412 -0.545624 -0.545399 -0.545624 -0.545579 -0.545689 -0.545624 -0.545579 -0.545624 -0.545624 -0.545689 -0.545412 -0.545579 -0.545399 -0.545624 -0.545368 -0.545412 -0.545325 -0.545399 -0.545414 -0.545467 -0.545412 -0.545368 -0.545412 -0.545414 -0.545579 -0.545412 -0.545399 -0.545412 -0.545624 -0.545579 -0.545412 -0.545399 -0.545579 -0.545624 -0.545414 -0.545412 -0.545412 -0.545579 -0.545467 -0.545414 -0.545368 -0.545412 -0.545467 -0.545451 -0.545414 -0.545467 -0.545368 -0.545467 -0.545412 -0.545414 -0.545325 -0.545368 -0.545399 -0.545412 -0.545368 -0.545325 -0.545412 -0.545399 -0.545467 -0.545368 -0.545414 -0.545412 -0.545451 -0.545467 -0.545467 -0.545414 -0.545467 -0.545414 -0.545451 -0.545467 -0.545414 -0.545412 -0.545467 -0.545368 -0.545412 -0.545399 -0.545368 -0.545325 -0.545399 -0.545412 -0.545325 -0.545368 -0.545412 -0.545414 -0.545368 -0.545467 -0.545414 -0.545467 -0.545467 -0.545451 -0.545368 -0.545412 -0.545467 -0.545414 -0.545412 -0.545579 -0.545414 -0.545412 -0.545579 -0.545624 -0.545412 -0.545399 -0.545624 -0.545579 -0.545399 -0.545412 -0.545579 -0.545412 -0.545412 -0.545414 -0.545412 -0.545368 -0.545414 -0.545467 -0.545325 -0.545399 -0.545368 -0.545412 -0.545399 -0.545624 -0.545412 -0.545579 -0.545624 -0.545689 -0.545579 -0.545624 -0.545689 -0.545624 -0.545624 -0.545579 -0.545624 -0.545399 -0.545579 -0.545412 -0.545399 -0.545325 -0.545412 -0.545368 -0.545368 -0.545412 -0.545325 -0.545399 -0.545412 -0.545579 -0.545399 -0.545624 -0.545579 -0.545624 -0.545624 -0.545689 -0.545624 -0.545579 -0.545689 -0.545624 -0.545579 -0.545412 -0.545624 -0.545399 -0.545412 -0.545368 -0.545399 -0.545325 -0.545467 -0.545414 -0.545368 -0.545412 -0.545414 -0.545412 -0.545412 -0.545579 -0.545412 -0.545399 -0.545579 -0.545624 -0.545399 -0.545412 -0.545624 -0.545579 -0.545412 -0.545414 -0.545579 -0.545412 -0.545414 -0.545467 -0.545412 -0.545368 -0.545451 -0.545467 -0.545467 -0.545414 -0.545467 -0.545368 -0.545414 -0.545412 -0.545368 -0.545325 -0.545412 -0.545399 -0.545325 -0.545368 -0.545399 -0.545412 -0.545368 -0.545467 -0.545412 -0.545414 -0.545467 -0.545451 -0.545414 -0.545467 -0.545414 -0.545467 -0.545467 -0.545451 -0.545412 -0.545368 -0.545414 -0.545467 -0.545399 -0.545325 -0.545412 -0.545368 -0.545412 -0.545368 -0.545399 -0.545325 -0.545414 -0.545467 -0.545412 -0.545368 -0.545467 -0.545451 -0.545414 -0.545467 -0.545412 -0.545414 -0.545368 -0.545467 -0.545579 -0.545412 -0.545412 -0.545414 -0.545624 -0.545399 -0.545579 -0.545412 -0.545579 -0.545412 -0.545624 -0.545399 -0.545412 -0.545414 -0.545579 -0.545412 -0.545368 -0.545467 -0.545412 -0.545414 -0.545399 -0.545412 -0.545325 -0.545368 -0.545624 -0.545579 -0.545399 -0.545412 -0.545689 -0.545624 -0.545624 -0.545579 -0.545624 -0.545579 -0.545689 -0.545624 -0.545399 -0.545412 -0.545624 -0.545579 -0.545325 -0.545368 -0.545399 -0.545412 -0.545412 -0.545399 -0.545368 -0.545325 -0.545579 -0.545624 -0.545412 -0.545399 -0.545624 -0.545689 -0.545579 -0.545624 -0.545579 -0.545624 -0.545624 -0.545689 -0.545412 -0.545399 -0.545579 -0.545624 -0.545368 -0.545325 -0.545412 -0.545399 -0.545414 -0.545412 -0.545467 -0.545368 -0.545412 -0.545579 -0.545414 -0.545412 -0.545399 -0.545624 -0.545412 -0.545579 -0.545412 -0.545579 -0.545399 -0.545624 -0.545414 -0.545412 -0.545412 -0.545579 -0.545467 -0.545368 -0.545414 -0.545412 -0.545467 -0.545414 -0.545451 -0.545467 -0.545368 -0.545412 -0.545467 -0.545414 -0.545325 -0.545399 -0.545368 -0.545412 -0.545368 -0.545412 -0.545325 -0.545399 -0.545467 -0.545414 -0.545368 -0.545412 -0.545451 -0.545467 -0.545467 -0.545414 -0.545467 -0.545451 -0.545414 -0.545467 -0.545368 -0.545467 -0.545412 -0.545414 -0.545325 -0.545368 -0.545399 -0.545412 -0.545368 -0.545325 -0.545412 -0.545399 -0.545467 -0.545368 -0.545414 -0.545412 -0.545451 -0.545467 -0.545467 -0.545414 -0.545414 -0.545467 -0.545412 -0.545368 -0.545412 -0.545414 -0.545579 -0.545412 -0.545399 -0.545412 -0.545624 -0.545579 -0.545412 -0.545399 -0.545579 -0.545624 -0.545414 -0.545412 -0.545412 -0.545579 -0.545467 -0.545414 -0.545368 -0.545412 -0.545412 -0.545368 -0.545399 -0.545325 -0.545579 -0.545412 -0.545624 -0.545399 -0.545624 -0.545579 -0.545689 -0.545624 -0.545579 -0.545624 -0.545624 -0.545689 -0.545412 -0.545579 -0.545399 -0.545624 -0.545368 -0.545412 -0.545325 -0.545399 -0.545399 -0.545325 -0.545412 -0.545368 -0.545624 -0.545399 -0.545579 -0.545412 -0.545689 -0.545624 -0.545624 -0.545579 -0.545624 -0.545689 -0.545579 -0.545624 -0.545399 -0.545624 -0.545412 -0.545579 -0.545325 -0.545399 -0.545368 -0.545412 -0.545412 -0.545368 -0.545414 -0.545467 -0.545579 -0.545412 -0.545412 -0.545414 -0.545624 -0.545579 -0.545399 -0.545412 -0.545579 -0.545624 -0.545412 -0.545399 -0.545412 -0.545579 -0.545414 -0.545412 -0.545368 -0.545412 -0.545467 -0.545414 -0.545414 -0.545467 -0.545467 -0.545451 -0.545412 -0.545414 -0.545368 -0.545467 -0.545399 -0.545412 -0.545325 -0.545368 -0.545412 -0.545399 -0.545368 -0.545325 -0.545414 -0.545412 -0.545467 -0.545368 -0.545467 -0.545414 -0.545451 -0.545467 -0.545414 -0.545467 -0.545467 -0.545451 -0.545412 -0.545368 -0.545414 -0.545467 -0.545399 -0.545325 -0.545412 -0.545368 -0.545412 -0.545368 -0.545399 -0.545325 -0.545414 -0.545467 -0.545412 -0.545368 -0.545467 -0.545451 -0.545414 -0.545467 -0.545412 -0.545414 -0.545368 -0.545467 -0.545579 -0.545412 -0.545412 -0.545414 -0.545624 -0.545399 -0.545579 -0.545412 -0.545579 -0.545412 -0.545624 -0.545399 -0.545412 -0.545414 -0.545579 -0.545412 -0.545368 -0.545467 -0.545412 -0.545414 -0.545399 -0.545412 -0.545325 -0.545368 -0.545624 -0.545579 -0.545399 -0.545412 -0.545689 -0.545624 -0.545624 -0.545579 -0.545624 -0.545579 -0.545689 -0.545624 -0.545399 -0.545412 -0.545624 -0.545579 -0.545325 -0.545368 -0.545399 -0.545412 -0.545412 -0.545399 -0.545368 -0.545325 -0.545579 -0.545624 -0.545412 -0.545399 -0.545624 -0.545689 -0.545579 -0.545624 -0.545579 -0.545624 -0.545624 -0.545689 -0.545412 -0.545399 -0.545579 -0.545624 -0.545368 -0.545325 -0.545412 -0.545399 -0.545414 -0.545412 -0.545467 -0.545368 -0.545412 -0.545579 -0.545414 -0.545412 -0.545399 -0.545624 -0.545412 -0.545579 -0.545412 -0.545579 -0.545399 -0.545624 -0.545414 -0.545412 -0.545412 -0.545579 -0.545467 -0.545368 -0.545414 -0.545412 -0.545467 -0.545414 -0.545451 -0.545467 -0.545368 -0.545412 -0.545467 -0.545414 -0.545325 -0.545399 -0.545368 -0.545412 -0.545368 -0.545412 -0.545325 -0.545399 -0.545467 -0.545414 -0.545368 -0.545412 -0.545451 -0.545467 -0.545467 -0.545414 -0.545467 -0.545451 -0.545414 -0.545467 -0.545368 -0.545467 -0.545412 -0.545414 -0.545325 -0.545368 -0.545399 -0.545412 -0.545368 -0.545325 -0.545412 -0.545399 -0.545467 -0.545368 -0.545414 -0.545412 -0.545451 -0.545467 -0.545467 -0.545414 -0.545414 -0.545467 -0.545412 -0.545368 -0.545412 -0.545414 -0.545579 -0.545412 -0.545399 -0.545412 -0.545624 -0.545579 -0.545412 -0.545399 -0.545579 -0.545624 -0.545414 -0.545412 -0.545412 -0.545579 -0.545467 -0.545414 -0.545368 -0.545412 -0.545412 -0.545368 -0.545399 -0.545325 -0.545579 -0.545412 -0.545624 -0.545399 -0.545624 -0.545579 -0.545689 -0.545624 -0.545579 -0.545624 -0.545624 -0.545689 -0.545412 -0.545579 -0.545399 -0.545624 -0.545368 -0.545412 -0.545325 -0.545399 -0.545399 -0.545325 -0.545412 -0.545368 -0.545624 -0.545399 -0.545579 -0.545412 -0.545689 -0.545624 -0.545624 -0.545579 -0.545624 -0.545689 -0.545579 -0.545624 -0.545399 -0.545624 -0.545412 -0.545579 -0.545325 -0.545399 -0.545368 -0.545412 -0.545412 -0.545368 -0.545414 -0.545467 -0.545579 -0.545412 -0.545412 -0.545414 -0.545624 -0.545579 -0.545399 -0.545412 -0.545579 -0.545624 -0.545412 -0.545399 -0.545412 -0.545579 -0.545414 -0.545412 -0.545368 -0.545412 -0.545467 -0.545414 -0.545414 -0.545467 -0.545467 -0.545451 -0.545412 -0.545414 -0.545368 -0.545467 -0.545399 -0.545412 -0.545325 -0.545368 -0.545412 -0.545399 -0.545368 -0.545325 -0.545414 -0.545412 -0.545467 -0.545368 -0.545467 -0.545414 -0.545451 -0.545467 
SCALARS alpha double 1
LOOKUP_TABLE default