# vtk DataFile Version 3.0
#This file was generated by the deal.II library on 2025/4/19 at 12:36:21
ASCII
DATASET UNSTRUCTURED_GRID

POINTS 18432 double
0 3.5 0.625
0 3.625 0.625
0 3.5 0.5
0 3.625 0.5
0 3.25 0.625
0 3.375 0.625
0 3.25 0.5
0 3.375 0.5
0 3.25 0.625
0 3.25 0.5
0 3.125 0.625
0 3.125 0.5
0 3.5 0.375
0 3.5 0.25
0 3.375 0.375
0 3.375 0.25
0 3.5 0.25
0 3.625 0.25
0 3.5 0.125
0 3.625 0.125
0 3.5 0.375
0 3.625 0.375
0 3.5 0.25
0 3.625 0.25
0 3.25 0.375
0 3.25 0.25
0 3.125 0.375
0 3.125 0.25
0 3.25 0.375
0 3.375 0.375
0 3.25 0.25
0 3.375 0.25
0 3.5 0.75
0 3.625 0.75
0 3.5 0.625
0 3.625 0.625
0 3.5 0.75
0 3.5 0.875
0 3.625 0.75
0 3.625 0.875
0 3.5 0.5
0 3.625 0.5
0 3.5 0.375
0 3.625 0.375
0 3.5 0.5
0 3.5 0.375
0 3.375 0.5
0 3.375 0.375
0 3.25 0.5
0 3.25 0.375
0 3.125 0.5
0 3.125 0.375
0 3.25 0.5
0 3.375 0.5
0 3.25 0.375
0 3.375 0.375
0 3.5 0.75
0 3.375 0.75
0 3.5 0.875
0 3.375 0.875
0 3.5 0.625
0 3.5 0.5
0 3.375 0.625
0 3.375 0.5
0 3 0.625
0 3.125 0.625
0 3 0.5
0 3.125 0.5
0 3.5 0.75
0 3.5 0.625
0 3.375 0.75
0 3.375 0.625
0 3.25 0.75
0 3.375 0.75
0 3.25 0.625
0 3.375 0.625
0 3.25 0.75
0 3.25 0.625
0 3.125 0.75
0 3.125 0.625
0 3 0.75
0 3.125 0.75
0 3 0.625
0 3.125 0.625
0 3.5 0.25
0 3.5 0.125
0 3.375 0.25
0 3.375 0.125
0 3.75 0.25
0 3.75 0.125
0 3.625 0.25
0 3.625 0.125
0 3.75 0.75
0 3.75 0.625
0 3.625 0.75
0 3.625 0.625
0 3 0.375
0 3.125 0.375
0 3 0.25
0 3.125 0.25
0 3.75 0.625
0 3.75 0.5
0 3.625 0.625
0 3.625 0.5
0 3.75 0.375
0 3.75 0.25
0 3.625 0.375
0 3.625 0.25
0 3.75 0.5
0 3.75 0.375
0 3.625 0.5
0 3.625 0.375
0 3.75 0.75
0 3.625 0.75
0 3.75 0.875
0 3.625 0.875
0 3 0.5
0 3.125 0.5
0 3 0.375
0 3.125 0.375
0 3.5 1
0 3.5 0.875
0 3.375 1
0 3.375 0.875
0 2.875 0.75
0 3 0.75
0 2.875 0.625
0 3 0.625
0 3.25 0.75
0 3.25 0.875
0 3.375 0.75
0 3.375 0.875
0 3.25 1
0 3.375 1
0 3.25 0.875
0 3.375 0.875
0 3.25 0.75
0 3.125 0.75
0 3.25 0.875
0 3.125 0.875
0 2.875 0.75
0 2.875 0.875
0 3 0.75
0 3 0.875
0 3 0.75
0 3 0.875
0 3.125 0.75
0 3.125 0.875
0 0.125 0
0 0 0
0 0.125 0.125
0 0 0.125
0 2 1.875
0 2 2
0 2.125 1.875
0 2.125 2
0 1.875 2
0 1.875 2.125
0 2 2
0 2 2.125
0 0.125 0.25
0 0.125 0.125
0 0 0.25
0 0 0.125
0 0.125 0.5
0 0.125 0.375
0 0 0.5
0 0 0.375
0 0.125 0.375
0 0.125 0.25
0 0 0.375
0 0 0.25
0 0.125 0.625
0 0.125 0.5
0 0 0.625
0 0 0.5
0 0.125 0.75
0 0.125 0.625
0 0 0.75
0 0 0.625
0 0.125 0.75
0 0 0.75
0 0.125 0.875
0 0 0.875
0 0.125 1
0 0 1
0 0.125 1.125
0 0 1.125
0 0.125 1
0 0.125 0.875
0 0 1
0 0 0.875
0 0.125 1.25
0 0.125 1.125
0 0 1.25
0 0 1.125
0 0.125 1.375
0 0.125 1.25
0 0 1.375
0 0 1.25
0 0.125 1.5
0 0 1.5
0 0.125 1.625
0 0 1.625
0 0.125 1.5
0 0.125 1.375
0 0 1.5
0 0 1.375
0 0.125 1.75
0 0.125 1.625
0 0 1.75
0 0 1.625
0 0.125 1.875
0 0.125 1.75
0 0 1.875
0 0 1.75
0 0.125 2
0 0 2
0 0.125 2.125
0 0 2.125
0 0.125 1.875
0 0 1.875
0 0.125 2
0 0 2
0 0.125 2.25
0 0.125 2.125
0 0 2.25
0 0 2.125
0 0.125 2.375
0 0.125 2.25
0 0 2.375
0 0 2.25
0 0.125 2.5
0 0 2.5
0 0.125 2.625
0 0 2.625
0 0.125 2.5
0 0.125 2.375
0 0 2.5
0 0 2.375
0 0.125 2.75
0 0.125 2.625
0 0 2.75
0 0 2.625
0 0.125 2.875
0 0.125 2.75
0 0 2.875
0 0 2.75
0 0.125 3
0 0 3
0 0.125 3.125
0 0 3.125
0 0.125 3
0 0.125 2.875
0 0 3
0 0 2.875
0 0.125 3.25
0 0.125 3.125
0 0 3.25
0 0 3.125
0 0.125 3.375
0 0.125 3.25
0 0 3.375
0 0 3.25
0 0.125 3.5
0 0 3.5
0 0.125 3.625
0 0 3.625
0 0.125 3.5
0 0.125 3.375
0 0 3.5
0 0 3.375
0 0.125 3.75
0 0.125 3.625
0 0 3.75
0 0 3.625
0 0.125 3.875
0 0.125 3.75
0 0 3.875
0 0 3.75
0 0.125 4
0 0 4
0 0.125 4.125
0 0 4.125
0 0.125 4
0 0.125 3.875
0 0 4
0 0 3.875
0 0.125 4.25
0 0.125 4.125
0 0 4.25
0 0 4.125
0 0.125 4.375
0 0.125 4.25
0 0 4.375
0 0 4.25
0 0.125 4.5
0 0 4.5
0 0.125 4.625
0 0 4.625
0 0.125 4.5
0 0.125 4.375
0 0 4.5
0 0 4.375
0 0.125 4.75
0 0.125 4.625
0 0 4.75
0 0 4.625
0 0.125 4.875
0 0.125 4.75
0 0 4.875
0 0 4.75
0 0.125 5
0 0 5
0 0.125 5.125
0 0 5.125
0 0.125 5
0 0.125 4.875
0 0 5
0 0 4.875
0 0.125 5.25
0 0.125 5.125
0 0 5.25
0 0 5.125
0 0.125 5.375
0 0 5.375
0 0.125 5.5
0 0 5.5
0 0.125 5.375
0 0.125 5.25
0 0 5.375
0 0 5.25
0 0.125 5.625
0 0.125 5.5
0 0 5.625
0 0 5.5
0 0.125 5.625
0 0 5.625
0 0.125 5.75
0 0 5.75
0 0.125 5.875
0 0 5.875
0 0.125 6
0 0 6
0 0.125 5.875
0 0.125 5.75
0 0 5.875
0 0 5.75
0 3.875 0
0 3.875 0.125
0 4 0
0 4 0.125
0 3.75 0
0 3.625 0
0 3.75 0.125
0 3.625 0.125
0 3.75 0
0 3.75 0.125
0 3.875 0
0 3.875 0.125
0 3.5 0
0 3.5 0.125
0 3.625 0
0 3.625 0.125
0 3.25 0
0 3.25 0.125
0 3.375 0
0 3.375 0.125
0 3.5 0
0 3.375 0
0 3.5 0.125
0 3.375 0.125
0 3.25 0
0 3.125 0
0 3.25 0.125
0 3.125 0.125
0 3 0
0 3 0.125
0 3.125 0
0 3.125 0.125
0 2.875 0
0 2.875 0.125
0 3 0
0 3 0.125
0 2.75 0
0 2.75 0.125
0 2.875 0
0 2.875 0.125
0 2.75 0
0 2.625 0
0 2.75 0.125
0 2.625 0.125
0 2.5 0
0 2.375 0
0 2.5 0.125
0 2.375 0.125
0 2.5 0
0 2.5 0.125
0 2.625 0
0 2.625 0.125
0 2.25 0
0 2.25 0.125
0 2.375 0
0 2.375 0.125
0 2.25 0
0 2.125 0
0 2.25 0.125
0 2.125 0.125
0 2 0
0 2 0.125
0 2.125 0
0 2.125 0.125
0 1.875 0
0 1.875 0.125
0 2 0
0 2 0.125
0 1.875 0
0 1.75 0
0 1.875 0.125
0 1.75 0.125
0 1.625 0
0 1.625 0.125
0 1.75 0
0 1.75 0.125
0 1.625 0
0 1.5 0
0 1.625 0.125
0 1.5 0.125
0 1.5 0
0 1.375 0
0 1.5 0.125
0 1.375 0.125
0 1.25 0
0 1.25 0.125
0 1.375 0
0 1.375 0.125
0 1.25 0
0 1.125 0
0 1.25 0.125
0 1.125 0.125
0 1 0
0 1 0.125
0 1.125 0
0 1.125 0.125
0 1 0
0 0.875 0
0 1 0.125
0 0.875 0.125
0 0.875 0
0 0.75 0
0 0.875 0.125
0 0.75 0.125
0 0.625 0
0 0.625 0.125
0 0.75 0
0 0.75 0.125
0 0.625 0
0 0.5 0
0 0.625 0.125
0 0.5 0.125
0 0.5 0
0 0.375 0
0 0.5 0.125
0 0.375 0.125
0 0.25 0
0 0.25 0.125
0 0.375 0
0 0.375 0.125
0 0.125 0
0 0.125 0.125
0 0.25 0
0 0.25 0.125
0 3.875 0.375
0 4 0.375
0 3.875 0.25
0 4 0.25
0 3.875 0.25
0 4 0.25
0 3.875 0.125
0 4 0.125
0 3.875 0.625
0 4 0.625
0 3.875 0.5
0 4 0.5
0 3.875 0.5
0 4 0.5
0 3.875 0.375
0 4 0.375
0 3.875 0.75
0 4 0.75
0 3.875 0.625
0 4 0.625
0 3.875 0.75
0 3.875 0.875
0 4 0.75
0 4 0.875
0 3.875 1
0 3.875 1.125
0 4 1
0 4 1.125
0 3.875 1
0 4 1
0 3.875 0.875
0 4 0.875
0 3.875 1.25
0 4 1.25
0 3.875 1.125
0 4 1.125
0 3.875 1.375
0 4 1.375
0 3.875 1.25
0 4 1.25
0 3.875 1.5
0 3.875 1.625
0 4 1.5
0 4 1.625
0 3.875 1.5
0 4 1.5
0 3.875 1.375
0 4 1.375
0 3.875 1.75
0 4 1.75
0 3.875 1.625
0 4 1.625
0 3.875 1.875
0 4 1.875
0 3.875 1.75
0 4 1.75
0 3.875 1.875
0 3.875 2
0 4 1.875
0 4 2
0 2.25 1.875
0 2.125 1.875
0 2.25 2
0 2.125 2
0 2.25 1.875
0 2.25 2
0 2.375 1.875
0 2.375 2
0 2.5 1.875
0 2.375 1.875
0 2.5 2
0 2.375 2
0 2.5 1.875
0 2.5 2
0 2.625 1.875
0 2.625 2
0 2.75 1.875
0 2.625 1.875
0 2.75 2
0 2.625 2
0 2.75 1.875
0 2.75 2
0 2.875 1.875
0 2.875 2
0 2.875 1.875
0 2.875 2
0 3 1.875
0 3 2
0 3.25 1.875
0 3.125 1.875
0 3.25 2
0 3.125 2
0 3 1.875
0 3 2
0 3.125 1.875
0 3.125 2
0 3.25 1.875
0 3.25 2
0 3.375 1.875
0 3.375 2
0 3.5 1.875
0 3.375 1.875
0 3.5 2
0 3.375 2
0 3.5 1.875
0 3.5 2
0 3.625 1.875
0 3.625 2
0 3.75 1.875
0 3.625 1.875
0 3.75 2
0 3.625 2
0 3.75 1.875
0 3.75 2
0 3.875 1.875
0 3.875 2
0 1.875 2.25
0 2 2.25
0 1.875 2.125
0 2 2.125
0 1.875 2.375
0 2 2.375
0 1.875 2.25
0 2 2.25
0 1.875 2.5
0 2 2.5
0 1.875 2.375
0 2 2.375
0 1.875 2.5
0 1.875 2.625
0 2 2.5
0 2 2.625
0 1.875 2.75
0 2 2.75
0 1.875 2.625
0 2 2.625
0 1.875 2.875
0 2 2.875
0 1.875 2.75
0 2 2.75
0 1.875 3
0 2 3
0 1.875 2.875
0 2 2.875
0 1.875 3
0 1.875 3.125
0 2 3
0 2 3.125
0 1.875 3.25
0 2 3.25
0 1.875 3.125
0 2 3.125
0 1.875 3.375
0 2 3.375
0 1.875 3.25
0 2 3.25
0 1.875 3.5
0 2 3.5
0 1.875 3.375
0 2 3.375
0 1.875 3.5
0 1.875 3.625
0 2 3.5
0 2 3.625
0 1.875 3.75
0 2 3.75
0 1.875 3.625
0 2 3.625
0 1.875 3.875
0 2 3.875
0 1.875 3.75
0 2 3.75
0 1.875 4
0 2 4
0 1.875 3.875
0 2 3.875
0 1.875 4
0 1.875 4.125
0 2 4
0 2 4.125
0 1.875 4.25
0 2 4.25
0 1.875 4.125
0 2 4.125
0 1.875 4.375
0 2 4.375
0 1.875 4.25
0 2 4.25
0 1.875 4.5
0 2 4.5
0 1.875 4.375
0 2 4.375
0 1.875 4.5
0 1.875 4.625
0 2 4.5
0 2 4.625
0 1.875 4.75
0 2 4.75
0 1.875 4.625
0 2 4.625
0 1.875 4.875
0 2 4.875
0 1.875 4.75
0 2 4.75
0 1.875 5
0 2 5
0 1.875 4.875
0 2 4.875
0 1.875 5
0 1.875 5.125
0 2 5
0 2 5.125
0 1.875 5.25
0 2 5.25
0 1.875 5.125
0 2 5.125
0 1.875 5.375
0 2 5.375
0 1.875 5.25
0 2 5.25
0 1.875 5.375
0 1.875 5.5
0 2 5.375
0 2 5.5
0 1.875 5.625
0 2 5.625
0 1.875 5.5
0 2 5.5
0 1.875 5.625
0 1.875 5.75
0 2 5.625
0 2 5.75
0 1.875 5.875
0 2 5.875
0 1.875 5.75
0 2 5.75
0 1.875 5.875
0 1.875 6
0 2 5.875
0 2 6
0 0.25 5.875
0 0.25 6
0 0.375 5.875
0 0.375 6
0 0.125 5.875
0 0.125 6
0 0.25 5.875
0 0.25 6
0 0.625 5.875
0 0.5 5.875
0 0.625 6
0 0.5 6
0 0.5 5.875
0 0.375 5.875
0 0.5 6
0 0.375 6
0 0.625 5.875
0 0.625 6
0 0.75 5.875
0 0.75 6
0 0.875 5.875
0 0.75 5.875
0 0.875 6
0 0.75 6
0 1 5.875
0 0.875 5.875
0 1 6
0 0.875 6
0 1 5.875
0 1 6
0 1.125 5.875
0 1.125 6
0 1.25 5.875
0 1.125 5.875
0 1.25 6
0 1.125 6
0 1.5 5.875
0 1.375 5.875
0 1.5 6
0 1.375 6
0 1.25 5.875
0 1.25 6
0 1.375 5.875
0 1.375 6
0 1.625 5.875
0 1.5 5.875
0 1.625 6
0 1.5 6
0 1.625 5.875
0 1.625 6
0 1.75 5.875
0 1.75 6
0 1.875 5.875
0 1.75 5.875
0 1.875 6
0 1.75 6
0 0.125 1.25
0 0.25 1.25
0 0.125 1.125
0 0.25 1.125
0 0.125 1
0 0.125 1.125
0 0.25 1
0 0.25 1.125
0 3.25 0.25
0 3.25 0.125
0 3.125 0.25
0 3.125 0.125
0 3.25 0.25
0 3.375 0.25
0 3.25 0.125
0 3.375 0.125
0 3.75 0.75
0 3.875 0.75
0 3.75 0.625
0 3.875 0.625
0 0.125 5.375
0 0.125 5.5
0 0.25 5.375
0 0.25 5.5
0 3.75 1.5
0 3.75 1.625
0 3.875 1.5
0 3.875 1.625
0 3.75 1.75
0 3.875 1.75
0 3.75 1.625
0 3.875 1.625
0 2.25 0.25
0 2.375 0.25
0 2.25 0.125
0 2.375 0.125
0 0.125 5.875
0 0.25 5.875
0 0.125 5.75
0 0.25 5.75
0 0.125 5.625
0 0.125 5.75
0 0.25 5.625
0 0.25 5.75
0 0.125 0.25
0 0.25 0.25
0 0.125 0.125
0 0.25 0.125
0 0.125 0.75
0 0.25 0.75
0 0.125 0.625
0 0.25 0.625
0 0.125 0.625
0 0.25 0.625
0 0.125 0.5
0 0.25 0.5
0 0.125 0.75
0 0.125 0.875
0 0.25 0.75
0 0.25 0.875
0 0.125 1
0 0.25 1
0 0.125 0.875
0 0.25 0.875
0 0.125 1.375
0 0.25 1.375
0 0.125 1.25
0 0.25 1.25
0 0.125 1.75
0 0.25 1.75
0 0.125 1.625
0 0.25 1.625
0 0.125 1.875
0 0.25 1.875
0 0.125 1.75
0 0.25 1.75
0 0.125 2.25
0 0.25 2.25
0 0.125 2.125
0 0.25 2.125
0 0.125 2.375
0 0.25 2.375
0 0.125 2.25
0 0.25 2.25
0 0.125 2.75
0 0.25 2.75
0 0.125 2.625
0 0.25 2.625
0 0.125 2.875
0 0.25 2.875
0 0.125 2.75
0 0.25 2.75
[...]
POINT_DATA 18432
SCALARS phi double 1
LOOKUP_TABLE default
-1.16443 -1.06908 -1.06453 -0.980379 -1.27218 -1.23249 -1.15962 -1.12459 -1.27218 -1.15962 -1.28289 -1.16907 -0.996264 -0.95503 -1.04927 -1.0018 -0.95503 -0.889493 -0.93647 -0.878633 -0.996264 -0.922001 -0.95503 -0.889493 -1.08018 -1.02908 -1.08852 -1.03644 -1.08018 -1.04927 -1.02908 -1.0018 -1.30084 -1.19279 -1.16443 -1.06908 -1.30084 -1.4789 -1.19279 -1.35646 -1.06453 -0.980379 -0.996264 -0.922001 -1.06453 -0.996264 -1.12459 -1.04927 -1.15962 -1.08018 -1.16907 -1.08852 -1.15962 -1.12459 -1.08018 -1.04927 -1.30084 -1.37796 -1.4789 -1.56628 -1.16443 -1.06453 -1.23249 -1.12459 -1.26445 -1.28289 -1.1528 -1.16907 -1.30084 -1.16443 -1.37796 -1.23249 -1.42293 -1.37796 -1.27218 -1.23249 -1.42293 -1.27218 -1.43507 -1.28289 -1.41418 -1.43507 -1.26445 -1.28289 -0.95503 -0.93647 -1.0018 -0.977747 -0.806215 -0.805141 -0.889493 -0.878633 -1.05549 -0.947909 -1.19279 -1.06908 -1.07416 -1.08852 -1.02377 -1.03644 -0.947909 -0.873448 -1.06908 -0.980379 -0.827634 -0.806215 -0.922001 -0.889493 -0.873448 -0.827634 -0.980379 -0.922001 -1.05549 -1.19279 -1.20088 -1.35646 -1.1528 -1.16907 -1.07416 -1.08852 -1.70408 -1.4789 -1.8031 -1.56628 -1.36058 -1.41418 -1.21715 -1.26445 -1.42293 -1.61725 -1.37796 -1.56628 -1.86085 -1.8031 -1.61725 -1.56628 -1.42293 -1.43507 -1.61725 -1.631 -1.36058 -1.54659 -1.41418 -1.60733 -1.41418 -1.60733 -1.43507 -1.631 0.992198 1 1.24898 1.25782 -1.75953 -2.16563 -2.4776 -2.97931 -1.30397 -1.65764 -2.16563 -2.63404 1.52141 1.24898 1.53143 1.25782 2.11528 1.80991 2.12815 1.82126 1.80991 1.52141 1.82126 1.53143 2.43877 2.11528 2.45334 2.12815 2.78212 2.43877 2.79864 2.45334 2.78212 2.79864 3.1477 3.16642 3.53854 3.55975 3.95845 3.98248 3.53854 3.1477 3.55975 3.16642 4.41209 3.95845 4.43933 3.98248 4.90511 4.41209 4.93597 4.43933 5.44422 5.47918 6.03733 6.07695 5.44422 4.90511 5.47918 4.93597 6.69369 6.03733 6.73859 6.07695 7.42403 6.69369 7.47491 6.73859 8.2407 8.29835 9.15789 9.22322 7.42403 7.47491 8.2407 8.29835 10.1918 9.15789 10.2658 9.22322 11.3608 10.1918 11.4447 10.2658 12.6859 12.781 14.1908 14.2985 12.6859 11.3608 12.781 11.4447 15.9022 14.1908 16.0243 14.2985 17.8506 15.9022 17.9889 16.0243 20.0699 20.2267 22.5989 22.7765 20.0699 17.8506 20.2267 17.9889 25.4809 22.5989 25.6821 22.7765 28.765 25.4809 28.993 25.6821 32.5063 32.7647 36.7671 37.0599 32.5063 28.765 32.7647 28.993 41.6178 36.7671 41.9495 37.0599 47.1374 41.6178 47.5133 41.9495 53.4154 53.8413 60.5527 61.0354 53.4154 47.1374 53.8413 47.5133 68.6634 60.5527 69.2104 61.0354 77.8764 68.6634 78.4962 69.2104 88.3373 89.0396 100.211 101.007 88.3373 77.8764 89.0396 78.4962 113.683 100.211 114.585 101.007 128.965 113.683 129.987 114.585 146.296 147.454 165.946 167.258 146.296 128.965 147.454 129.987 188.22 165.946 189.707 167.258 213.467 215.151 242.077 243.986 213.467 188.22 215.151 189.707 274.497 242.077 276.661 243.986 274.497 276.661 311.231 313.682 352.85 355.628 400.002 403.149 352.85 311.231 355.628 313.682 -0.742898 -0.717139 -0.653644 -0.616001 -0.820559 -0.885416 -0.805141 -0.878633 -0.820559 -0.805141 -0.742898 -0.717139 -0.936457 -0.93647 -0.885416 -0.878633 -0.99413 -1.00182 -0.972884 -0.977747 -0.936457 -0.972884 -0.93647 -0.977747 -0.99413 -0.999862 -1.00182 -1.00832 -0.989992 -0.997134 -0.999862 -1.00832 -0.964674 -0.968444 -0.989992 -0.997134 -0.924302 -0.922697 -0.964674 -0.968444 -0.924302 -0.869507 -0.922697 -0.860606 -0.801144 -0.720278 -0.78314 -0.691508 -0.801144 -0.78314 -0.869507 -0.860606 -0.628174 -0.587139 -0.720278 -0.691508 -0.628174 -0.526266 -0.587139 -0.471663 -0.416147 -0.346881 -0.526266 -0.471663 -0.299534 -0.214741 -0.416147 -0.346881 -0.299534 -0.178246 -0.214741 -0.0773045 -0.0541771 0.063284 -0.178246 -0.0773045 -0.0541771 0.0707372 0.063284 0.20483 0.0707372 0.194548 0.20483 0.345126 0.315322 0.481982 0.194548 0.345126 0.315322 0.431177 0.481982 0.613262 0.540302 0.736917 0.431177 0.613262 0.540302 0.640997 0.736917 0.851019 0.640997 0.731689 0.851019 0.953787 0.810963 1.04362 0.731689 0.953787 0.810963 0.877583 1.04362 1.11911 0.877583 0.930508 1.11911 1.17908 0.968912 1.2226 0.930508 1.17908 0.992198 1.24898 0.968912 1.2226 -0.714637 -0.584773 -0.706496 -0.591891 -0.706496 -0.591891 -0.717139 -0.616001 -0.802819 -0.63607 -0.745406 -0.598251 -0.745406 -0.598251 -0.714637 -0.584773 -0.891076 -0.702125 -0.802819 -0.63607 -0.891076 -1.01458 -0.702125 -0.800466 -1.17793 -1.38602 -0.935317 -1.1111 -1.17793 -0.935317 -1.01458 -0.800466 -1.64398 -1.33246 -1.38602 -1.1111 -1.95732 -1.60432 -1.64398 -1.33246 -2.33194 -2.77422 -1.93193 -2.32094 -2.33194 -1.93193 -1.95732 -1.60432 -3.2911 -2.77747 -2.77422 -2.32094 -3.89022 -3.30821 -3.2911 -2.77747 -3.89022 -4.58002 -3.30821 -3.92051 -3.14212 -2.4776 -3.73231 -2.97931 -3.14212 -3.73231 -3.74272 -4.41288 -4.27003 -3.74272 -5.0104 -4.41288 -4.27003 -5.0104 -4.71581 -5.51554 -5.07312 -4.71581 -5.92042 -5.51554 -5.07312 -5.92042 -5.33638 -6.21873 -5.33638 -6.21873 -5.50148 -6.40581 -5.52845 -5.56584 -6.43638 -6.47874 -5.50148 -6.40581 -5.56584 -6.47874 -5.52845 -6.43638 -5.38991 -6.2794 -5.15238 -5.38991 -6.01023 -6.2794 -5.15238 -6.01023 -4.81955 -5.63309 -4.39663 -4.81955 -5.15386 -5.63309 -4.39663 -5.15386 -3.89022 -4.58002 -2.06382 -3.17022 -1.65764 -2.63404 -2.5266 -3.78032 -2.06382 -3.17022 -3.05059 -4.47123 -2.5266 -3.78032 -3.05059 -3.64101 -4.47123 -5.25081 -4.30383 -6.12797 -3.64101 -5.25081 -5.04591 -7.11293 -4.30383 -6.12797 -5.87517 -8.21741 -5.04591 -7.11293 -5.87517 -6.80076 -8.21741 -9.45487 -7.83327 -10.8408 -6.80076 -9.45487 -8.98495 -12.3929 -7.83327 -10.8408 -10.27 -14.1317 -8.98495 -12.3929 -10.27 -11.7047 -14.1317 -16.0806 -13.3081 -18.2666 -11.7047 -16.0806 -15.1017 -20.7205 -13.3081 -18.2666 -17.1108 -23.4776 -15.1017 -20.7205 -17.1108 -19.3639 -23.4776 -26.5785 -21.8939 -30.0691 -19.3639 -26.5785 -24.7385 -34.0023 -21.8939 -30.0691 -27.9407 -38.4379 -24.7385 -34.0023 -27.9407 -31.5494 -38.4379 -43.4443 -35.6207 -49.0993 -31.5494 -43.4443 -40.218 -55.4913 -35.6207 -49.0993 -45.4136 -62.7206 -40.218 -55.4913 -45.4136 -51.2899 -62.7206 -70.9012 -57.9399 -80.1625 -51.2899 -70.9012 -65.4696 -90.6511 -57.9399 -80.1625 -65.4696 -73.999 -90.6511 -102.533 -83.664 -115.998 -73.999 -102.533 -83.664 -94.6189 -115.998 -131.258 -107.038 -148.555 -94.6189 -131.258 -107.038 -121.12 -148.555 -168.165 344.56 390.608 330.887 375.114 352.85 400.002 344.56 390.608 288.326 312.044 326.886 353.763 312.044 330.887 353.763 375.114 288.326 326.886 260.102 294.905 227.814 260.102 258.317 294.905 191.964 227.814 217.694 258.317 191.964 217.694 153.113 173.67 111.866 153.113 126.931 173.67 24.7872 68.8668 28.258 78.2067 111.866 126.931 68.8668 78.2067 -19.6853 24.7872 -22.136 28.258 -19.6853 -22.136 -63.8569 -72.189 -107.038 -63.8569 -121.12 -72.189 4.41209 4.33082 3.95845 3.88673 3.53854 3.95845 3.47525 3.88673 -1.02908 -1.00182 -1.03644 -1.00832 -1.02908 -1.0018 -1.00182 -0.977747 -1.05549 -0.891076 -0.947909 -0.802819 213.467 242.077 208.438 236.38 -2.68 -3.16861 -2.33194 -2.77422 -3.73801 -3.2911 -3.16861 -2.77422 -0.559187 -0.677452 -0.587139 -0.691508 352.85 344.56 311.231 303.915 274.497 311.231 268.041 303.915 1.52141 1.49151 1.24898 1.2226 2.78212 2.73283 2.43877 2.39526 2.43877 2.39526 2.11528 2.07689 2.78212 3.1477 2.73283 3.09184 3.53854 3.47525 3.1477 3.09184 4.90511 4.81302 4.41209 4.33082 6.69369 6.55969 6.03733 5.91907 7.42403 7.27219 6.69369 6.55969 10.1918 9.97086 9.15789 8.96292 11.3608 11.1105 10.1918 9.97086 15.9022 15.538 14.1908 13.8693 17.8506 17.4378 15.9022 15.538 25.4809 24.8804 22.5989 22.0689 28.765 28.0845 25.4809 24.8804 41.6178 40.6276 36.7671 35.8934 47.1374 46.0154 41.6178 40.6276 68.6634 67.031 60.5527 59.1121 77.8764 76.0266 68.6634 67.031 113.683 110.992 100.211 97.8356 128.965 125.916 113.683 110.992 188.22 183.783 165.946 162.03 213.467 208.438 188.22 183.783 -0.991262 -1.02377 -0.968444 -0.997134 -1.02377 -1.03644 -0.997134 -1.00832 -0.286939 -0.428335 -0.346881 -0.471663 -0.559187 -0.587139 -0.428335 -0.471663 0.177839 0.0185315 0.063284 -0.0773045 0.338232 0.20483 0.497208 0.345126 0.177839 0.063284 0.338232 0.20483 0.941166 0.801046 0.736917 0.613262 1.07046 0.851019 1.18691 0.953787 0.941166 0.736917 1.07046 0.851019 1.37424 1.11911 1.4422 1.17908 -1.05549 -1.20088 -0.891076 -1.01458 -1.38904 -1.17793 -1.20088 -1.01458 -2.68 -2.33194 -2.26448 -1.95732 -4.27003 -3.62628 -3.74272 -3.16093 -5.07312 -4.33501 -4.71581 -4.01968 -4.27003 -4.71581 -3.62628 -4.01968 -5.15238 -4.81955 -4.40495 -4.11123 -3.05059 -2.5266 -1.57301 -1.22264 -4.30383 -3.64101 -2.40658 -1.96669 -3.05059 -1.57301 -3.64101 -1.96669 -5.87517 -3.43905 -6.80076 -4.04027 -5.87517 -5.04591 -3.43905 -2.89604 -8.98495 -7.83327 -5.44041 -4.70522 -7.83327 -6.80076 -4.70522 -4.04027 -13.3081 -11.7047 -8.15078 -7.15343 -10.27 -6.25348 -11.7047 -7.15343 -17.1108 -15.1017 -10.4887 -9.25778 -15.1017 -13.3081 -9.25778 -8.15078 -24.7385 -21.8939 -15.1035 -13.391 -21.8939 -19.3639 -13.391 -11.8601 -27.9407 -17.0227 -31.5494 -19.1778 -27.9407 -24.7385 -17.0227 -15.1035 -45.4136 -40.218 -27.413 -24.3324 -40.218 -35.6207 -24.3324 -21.6017 -57.9399 -51.2899 -34.8266 -30.8925 -45.4136 -27.413 -51.2899 -30.8925 -83.664 -73.999 -50.0344 -44.3209 191.964 169.25 227.814 200.887 -107.038 -94.6189 -63.8569 -56.5115 -0.999118 -1.30397 -1.75953 -2.16563 -1.75953 -2.4776 -1.41077 -2.04447 4.33082 4.19678 3.88673 3.76843 -0.137205 -0.286939 -0.214741 -0.346881 0.652286 0.497208 0.481982 0.345126 8.2407 9.15789 8.06865 8.96292 12.6859 14.1908 12.4022 13.8693 20.0699 22.5989 19.6022 22.0689 32.5063 36.7671 31.7352 35.8934 53.4154 60.5527 52.144 59.1121 88.3373 100.211 86.2412 97.8356 -0.939424 -0.991262 -0.922697 -0.968444 -0.97858 -1.03732 -0.939424 -0.991262 -1.03732 -1.07416 -0.991262 -1.02377 -5.07312 -5.33638 -4.33501 -4.56733 -5.04591 -4.30383 -2.89604 -2.40658 -10.27 -8.98495 -6.25348 -5.44041 -17.1108 -10.4887 -19.3639 -11.8601 -35.6207 -31.5494 -21.6017 -19.1778 191.964 153.113 169.25 134.963 146.296 165.946 142.84 162.03 -65.4696 -57.9399 -39.2788 -34.8266 2.73283 2.65152 2.39526 2.32351 1.2887 1.18691 1.04362 0.953787 5.44422 6.03733 5.33986 5.91907 1.49151 1.4422 1.2226 1.17908 1.77603 1.72015 1.49151 1.4422 -83.664 -50.0344 -94.6189 -56.5115 -4.39663 -3.73801 -4.81955 -4.11123 -3.73801 -3.16861 -4.11123 -3.49798 -1.30397 -0.407773 -1.65764 -0.642116 2.11528 2.07689 1.80991 1.77603 1.80991 1.77603 1.52141 1.49151 5.44422 5.33986 4.90511 4.81302 7.42403 8.2407 7.27219 8.06865 12.6859 12.4022 11.3608 11.1105 20.0699 19.6022 17.8506 17.4378 32.5063 31.7352 28.765 28.0845 53.4154 52.144 47.1374 46.0154 88.3373 86.2412 77.8764 76.0266 146.296 142.84 128.965 125.916 274.497 268.041 242.077 236.38 -0.806215 -0.706496 -0.805141 -0.717139 -0.939424 -0.922697 -0.869065 -0.860606 -0.781285 -0.78314 -0.677452 -0.691508 -0.781285 -0.869065 -0.78314 -0.860606 -0.137205 -0.214741 0.0185315 -0.0773045 0.652286 0.481982 0.801046 0.613262 1.2887 1.04362 1.37424 1.11911 -0.827634 -0.714637 -0.806215 -0.706496 -0.947909 -0.802819 -0.873448 -0.745406 -0.873448 -0.745406 -0.827634 -0.714637 -1.38904 -1.62523 -1.17793 -1.38602 -1.91505 -1.64398 -1.62523 -1.38602 -2.26448 -1.95732 -1.91505 -1.64398 -4.39663 -3.89022 -3.73801 -3.2911 -3.14212 -2.6309 -2.4776 -2.04447 -3.14212 -3.74272 -2.6309 -3.16093 -5.33638 -5.50148 -4.56733 -4.71303 -5.52845 -4.73684 -5.56584 -4.76982 -5.50148 -5.56584 -4.71303 -4.76982 -5.52845 -5.38991 -4.73684 -4.61457 -5.15238 -4.40495 -5.38991 -4.61457 -2.06382 -1.65764 -0.913078 -0.642116 -2.5266 -2.06382 -1.22264 -0.913078 -65.4696 -39.2788 -73.999 -44.3209 344.56 330.887 303.915 291.849 288.326 254.289 312.044 275.22 312.044 275.22 330.887 291.849 288.326 260.102 254.289 229.382 227.814 200.887 260.102 229.382 111.866 98.5631 153.113 134.963 24.7872 21.7167 68.8668 60.6168 111.866 68.8668 98.5631 60.6168 -19.6853 -17.5302 24.7872 21.7167 -19.6853 -63.8569 -17.5302 -56.5115 2.39526 2.32351 2.07689 2.01357 2.07689 2.01357 1.77603 1.72015 6.55969 6.33869 5.91907 5.72404 9.97086 9.60648 8.96292 8.64137 15.538 14.9372 13.8693 13.3392 24.8804 23.8899 22.0689 21.1948 40.6276 38.9946 35.8934 34.4522 67.031 64.3386 59.1121 56.7361 110.992 106.553 97.8356 93.9182 -0.999118 -1.75953 -0.73971 -1.41077 -0.999118 -0.208225 -1.30397 -0.407773 8.06865 8.96292 7.78487 8.64137 12.4022 13.8693 11.9344 13.3392 19.6022 22.0689 18.8309 21.1948 31.7352 35.8934 30.4634 34.4522 28.7108 30.4634 32.4662 34.4522 52.144 59.1121 50.0472 56.7361 86.2412 97.8356 82.7841 93.9182 5.33986 5.91907 5.16774 5.72404 -4.73684 -4.61457 -4.05008 -3.94218 -4.73684 -4.05008 -4.76982 -4.07919 224.246 254.289 202.265 229.382 -15.6335 19.0018 -17.5302 21.7167 19.0018 53.331 21.7167 60.6168 4.81302 4.66112 4.33082 4.19678 5.33986 5.16774 4.81302 4.66112 7.27219 7.02176 6.55969 6.33869 7.27219 8.06865 7.02176 7.78487 11.1105 10.6976 9.97086 9.60648 12.4022 11.9344 11.1105 10.6976 17.4378 16.7571 15.538 14.9372 19.6022 18.8309 17.4378 16.7571 28.0845 26.9621 24.8804 23.8899 31.7352 30.4634 28.0845 26.9621 46.0154 44.165 40.6276 38.9946 52.144 50.0472 46.0154 44.165 76.0266 72.9758 67.031 64.3386 86.2412 82.7841 76.0266 72.9758 125.916 120.886 110.992 106.553 1.15241 0.941166 1.29892 1.07046 1.64315 1.37424 1.72015 1.4422 -1.50544 -4.70522 -1.21647 -4.04027 -3.27981 -9.25778 -2.87523 -8.15078 -5.8544 -17.0227 -5.24745 -15.1035 -8.99952 -10.0273 -27.413 -30.8925 -15.6335 -50.0344 -13.9622 -44.3209 3.47525 3.88673 3.37085 3.76843 208.438 236.38 200.145 226.982 -0.547715 -0.681726 -0.559187 -0.677452 268.041 303.915 257.392 291.849 268.041 257.392 236.38 226.982 3.47525 3.37085 3.09184 2.99972 2.73283 3.09184 2.65152 2.99972 183.783 176.464 162.03 155.571 208.438 200.145 183.783 176.464 -0.97858 -0.939424 -0.898853 -0.869065 -0.239218 -0.39944 -0.286939 -0.428335 -0.547715 -0.559187 -0.39944 -0.428335 0.287445 0.106926 0.177839 0.0185315 0.469195 0.338232 0.649338 0.497208 0.287445 0.177839 0.469195 0.338232 1.15241 0.993631 0.941166 0.801046 1.29892 1.07046 1.43087 1.18691 -1.38904 -1.56534 -1.62523 -1.82501 -2.68 -2.26448 -2.97067 -2.521 -3.62628 -3.07001 -3.16093 -2.65934 -4.33501 -3.69546 -4.01968 -3.41719 -3.62628 -4.01968 -3.07001 -3.41719 -4.40495 -4.11123 -3.75719 -3.49798 -4.40495 -3.75719 -4.61457 -3.94218 -0.0615405 -1.57301 0.111226 -1.22264 -0.465812 -2.40658 -0.253972 -1.96669 -0.0615405 -0.253972 -1.57301 -1.96669 -0.696867 -2.89604 -0.465812 -2.40658 -0.947057 -3.43905 -0.696867 -2.89604 -1.81458 -5.44041 -1.50544 -4.70522 -2.14488 -6.25348 -1.81458 -5.44041 -2.14488 -2.49778 -6.25348 -7.15343 -3.71477 -10.4887 -3.27981 -9.25778 -3.71477 -4.18421 -10.4887 -11.8601 -4.6931 -13.391 -4.18421 -11.8601 -5.8544 -6.5224 -17.0227 -19.1778 -7.26132 -21.6017 -6.5224 -19.1778 -8.08261 -24.3324 -7.26132 -21.6017 -11.1833 -34.8266 -10.0273 -30.8925 149.199 177.119 169.25 200.887 177.119 202.265 200.887 229.382 -15.6335 -17.5302 -50.0344 -56.5115 -0.0695461 -0.239218 -0.137205 -0.286939 -0.0695461 -0.137205 0.106926 0.0185315 0.825064 0.649338 0.652286 0.497208 0.825064 0.652286 0.993631 0.801046 -4.33501 -4.56733 -3.69546 -3.90049 -4.56733 -4.71303 -3.90049 -4.02907 149.199 169.25 118.942 134.963 86.8185 118.942 98.5631 134.963 142.84 162.03 137.141 155.571 142.84 137.141 125.916 120.886 -12.4874 -39.2788 -11.1833 -34.8266 -12.4874 -13.9622 -39.2788 -44.3209 1.54622 1.43087 1.2887 1.18691 1.54622 1.2887 1.64315 1.37424 3.22699 3.37085 3.60541 3.76843 3.22699 2.87275 3.37085 2.99972 -1.91505 -1.62523 -2.14142 -1.82501 149.199 118.942 131.502 104.8 149.199 131.502 177.119 156.141 166.379 146.671 176.464 155.571 129.286 137.141 146.671 155.571 1.53625 1.29892 1.68578 1.43087 -2.68 -2.97067 -3.16861 -3.49798 -3.19941 -3.75719 -2.97067 -3.49798 -1.38904 -1.20088 -1.56534 -1.35646 -0.947057 -1.21647 -3.43905 -4.04027 -2.87523 -8.15078 -2.49778 -7.15343 -5.24745 -15.1035 -4.6931 -13.391 -8.99952 -27.413 -8.08261 -24.3324 -1.41077 -2.04447 -1.11484 -1.67407 4.01205 3.60541 4.19678 3.76843 2.53948 2.22464 2.65152 2.32351 2.53948 2.65152 2.87275 2.99972 0.50898 0.3967 -0.407773 -0.642116 -0.799385 -0.781285 -0.681726 -0.677452 -0.799385 -0.898853 -0.781285 -0.869065 -2.26448 -1.91505 -2.521 -2.14142 -2.6309 -2.1916 -2.04447 -1.67407 -2.6309 -3.16093 -2.1916 -2.65934 -4.71303 -4.76982 -4.02907 -4.07919 0.264055 -0.913078 0.3967 -0.642116 0.111226 -1.22264 0.264055 -0.913078 242.718 257.392 275.22 291.849 224.246 242.718 254.289 275.22 86.8185 98.5631 53.331 60.6168 6.03412 5.45526 6.33869 5.72404 9.10434 8.19823 9.60648 8.64137 14.1094 12.6086 14.9372 13.3392 22.525 19.9903 23.8899 21.1948 36.7442 32.4662 38.9946 34.4522 60.6283 53.4617 64.3386 56.7361 100.435 88.5197 106.553 93.9182 7.3938 7.78487 8.19823 8.64137 6.67664 7.02176 7.3938 7.78487 11.2896 11.9344 12.6086 13.3392 11.2896 10.1286 11.9344 10.6976 17.7678 18.8309 19.9903 21.1948 17.7678 15.819 18.8309 16.7571 47.1576 50.0472 53.4617 56.7361 47.1576 41.6149 50.0472 44.165 78.0199 82.7841 88.5197 93.9182 78.0199 68.7714 82.7841 72.9758 4.93055 5.16774 5.45526 5.72404 4.93055 4.4518 5.16774 4.66112 113.954 100.435 120.886 106.553 129.286 113.954 137.141 120.886 1.37023 1.15241 1.53625 1.29892 1.92631 1.64315 2.01357 1.72015 -1.81458 -1.50544 1.83595 1.71614 -1.50544 -1.21647 1.71614 1.62656 -3.71477 -3.27981 3.10532 2.7389 -5.8544 5.39003 -6.5224 6.21921 -11.1833 -10.0273 12.6212 10.9801 -15.6335 -13.9622 19.0018 16.6033 -12.4874 14.4866 -13.9622 16.6033 188.717 200.145 214.032 226.982 242.718 214.032 257.392 226.982 0.390103 0.185547 0.287445 0.106926 1.37023 1.19032 1.15241 0.993631 86.8185 76.4513 118.942 104.8 86.8185 53.331 76.4513 46.8987 -0.999118 -0.73971 -0.208225 -0.0417493 -0.73971 -1.41077 -0.522625 -1.11484 0.390103 0.287445 0.596051 0.469195 0.483881 0.390103 0.717252 0.596051 16.4298 17.7678 18.474 19.9903 28.7108 25.4154 30.4634 26.9621 43.5203 47.1576 49.3401 53.4617 4.63198 4.93055 5.11694 5.45526 5.65076 5.11694 6.03412 5.45526 -2.14488 -1.81458 1.99171 1.83595 -3.71477 3.10532 -4.18421 3.54397 -7.26132 -6.5224 7.17682 6.21921 3.0459 3.22699 3.40021 3.60541 -12.4874 -11.1833 14.4866 12.6212 12.6212 10.9801 36.2153 31.8018 14.4866 12.6212 41.2222 36.2153 2.22464 1.92631 2.32351 2.01357 2.10018 1.81648 2.22464 1.92631 -3.19941 -3.36267 -3.75719 -3.94218 177.119 156.141 202.265 178.333 -1.70408 -1.56534 -1.4789 -1.35646 -1.70408 -1.98222 -1.56534 -1.82501 -3.19941 -2.97067 -2.72287 -2.521 188.717 166.379 200.145 176.464 174.331 153.683 188.717 166.379 19.0018 16.6033 53.331 46.8987 -1.04449 -1.11105 -0.97858 -1.03732 -1.11105 -1.1528 -1.03732 -1.07416 0.600806 0.50898 -0.208225 -0.407773 26.5046 28.7108 29.9664 32.4662 -3.43934 -4.02907 -3.48358 -4.07919 224.246 197.731 242.718 214.032 224.246 202.265 197.731 178.333 4.4518 4.01205 4.66112 4.19678 6.67664 6.03412 7.02176 6.33869 10.1286 9.10434 10.6976 9.60648 15.819 14.1094 16.7571 14.9372 25.4154 22.525 26.9621 23.8899 41.6149 36.7442 44.165 38.9946 68.7714 60.6283 72.9758 64.3386 -3.27981 -2.87523 2.7389 2.43626 -5.8544 -5.24745 5.39003 4.67573 -8.99952 9.53941 -10.0273 10.9801 -0.556258 -0.708113 -0.547715 -0.681726 -1.04449 -0.97858 -0.954149 -0.898853 -0.206685 -0.388241 -0.239218 -0.39944 -0.556258 -0.547715 -0.388241 -0.39944 0.596051 0.469195 0.80018 0.649338 -2.59298 -2.23057 -3.07001 -2.65934 -3.14494 -2.89937 -3.69546 -3.41719 -2.59298 -3.07001 -2.89937 -3.41719 -0.0615405 0.111226 1.46023 1.45418 -0.465812 -0.253972 1.48818 1.47042 -0.0615405 1.46023 -0.253972 1.47042 -0.947057 1.56191 -1.21647 1.62656 -0.696867 -0.465812 1.51729 1.48818 -0.947057 -0.696867 1.56191 1.51729 -2.14488 1.99171 -2.49778 2.1896 -2.87523 -2.49778 2.43626 2.1896 -4.6931 -4.18421 4.06407 3.54397 -5.24745 -4.6931 4.67573 4.06407 -8.08261 -7.26132 8.27794 7.17682 -8.99952 -8.08261 9.53941 8.27794 -0.0144217 -0.206685 -0.0695461 -0.239218 -0.0144217 -0.0695461 0.185547 0.106926 0.999304 0.80018 0.825064 0.649338 0.999304 0.825064 1.19032 0.993631 -3.14494 -3.69546 -3.32587 -3.90049 -3.32587 -3.90049 -3.43934 -4.02907 1.81648 1.68578 1.54622 1.43087 1.81648 1.54622 1.92631 1.643