# vtk DataFile Version 3.0
#This file was generated by the deal.II library on 2025/4/19 at 12:25:25
ASCII
DATASET UNSTRUCTURED_GRID

POINTS 4608 double
0 2 1.75
0 2 2
0 2.25 1.75
0 2.25 2
0 1.75 2
0 1.75 2.25
0 2 2
0 2 2.25
0 0.25 0.25
0 0.25 0
0 0 0.25
0 0 0
0 0.25 0.25
0 0 0.25
0 0.25 0.5
0 0 0.5
0 0.25 0.75
0 0.25 0.5
0 0 0.75
0 0 0.5
0 0.25 1
0 0 1
0 0.25 1.25
0 0 1.25
0 0.25 1
0 0.25 0.75
0 0 1
0 0 0.75
0 0.25 1.5
0 0.25 1.25
0 0 1.5
0 0 1.25
0 0.25 1.75
0 0 1.75
0 0.25 2
0 0 2
0 0.25 1.75
0 0.25 1.5
0 0 1.75
0 0 1.5
0 0.25 2
0 0 2
0 0.25 2.25
0 0 2.25
0 0.25 2.5
0 0 2.5
0 0.25 2.75
0 0 2.75
0 0.25 2.5
0 0.25 2.25
0 0 2.5
0 0 2.25
0 0.25 3
0 0.25 2.75
0 0 3
0 0 2.75
0 0.25 3.25
0 0 3.25
0 0.25 3.5
0 0 3.5
0 0.25 3.25
0 0.25 3
0 0 3.25
0 0 3
0 0.25 3.75
0 0.25 3.5
0 0 3.75
0 0 3.5
0 0.25 4
0 0 4
0 0.25 4.25
0 0 4.25
0 0.25 4
0 0.25 3.75
0 0 4
0 0 3.75
0 0.25 4.5
0 0.25 4.25
0 0 4.5
0 0 4.25
0 0.25 4.75
0 0 4.75
0 0.25 5
0 0 5
0 0.25 4.75
0 0.25 4.5
0 0 4.75
0 0 4.5
0 0.25 5.25
0 0.25 5
0 0 5.25
0 0 5
0 0.25 5.25
0 0 5.25
0 0.25 5.5
0 0 5.5
0 0.25 5.75
0 0 5.75
0 0.25 6
0 0 6
0 0.25 5.75
0 0.25 5.5
0 0 5.75
0 0 5.5
0 3.75 0.25
0 4 0.25
0 3.75 0
0 4 0
0 3.5 0.25
0 3.5 0
0 3.25 0.25
0 3.25 0
0 3.5 0.25
0 3.75 0.25
0 3.5 0
0 3.75 0
0 3 0.25
0 3 0
0 2.75 0.25
0 2.75 0
0 3 0.25
0 3.25 0.25
0 3 0
0 3.25 0
0 2.5 0.25
0 2.75 0.25
0 2.5 0
0 2.75 0
0 2.5 0.25
0 2.5 0
0 2.25 0.25
0 2.25 0
0 2 0.25
0 2.25 0.25
0 2 0
0 2.25 0
0 1.75 0.25
0 2 0.25
0 1.75 0
0 2 0
0 1.75 0.25
0 1.75 0
0 1.5 0.25
0 1.5 0
0 1.25 0.25
0 1.25 0
0 1 0.25
0 1 0
0 1.25 0.25
0 1.5 0.25
0 1.25 0
0 1.5 0
0 0.75 0.25
0 1 0.25
0 0.75 0
0 1 0
0 0.75 0.25
0 0.75 0
0 0.5 0.25
0 0.5 0
0 0.5 0.25
0 0.5 0
0 0.25 0.25
0 0.25 0
0 3.75 0.25
0 3.75 0.5
0 4 0.25
0 4 0.5
0 3.75 0.75
0 4 0.75
0 3.75 0.5
0 4 0.5
0 3.75 1
0 4 1
0 3.75 0.75
0 4 0.75
0 3.75 1
0 3.75 1.25
0 4 1
0 4 1.25
0 3.75 1.5
0 4 1.5
0 3.75 1.25
0 4 1.25
0 3.75 1.75
0 4 1.75
0 3.75 1.5
0 4 1.5
0 3.75 1.75
0 3.75 2
0 4 1.75
0 4 2
0 2.5 1.75
0 2.25 1.75
0 2.5 2
0 2.25 2
0 2.5 1.75
0 2.5 2
0 2.75 1.75
0 2.75 2
0 3 1.75
0 2.75 1.75
0 3 2
0 2.75 2
0 3 1.75
0 3 2
0 3.25 1.75
0 3.25 2
0 3.5 1.75
0 3.25 1.75
0 3.5 2
0 3.25 2
0 3.5 1.75
0 3.5 2
0 3.75 1.75
0 3.75 2
0 1.75 2.5
0 2 2.5
0 1.75 2.25
0 2 2.25
0 1.75 2.5
0 1.75 2.75
0 2 2.5
0 2 2.75
0 1.75 3
0 2 3
0 1.75 2.75
0 2 2.75
0 1.75 3.25
0 2 3.25
0 1.75 3
0 2 3
0 1.75 3.25
0 1.75 3.5
0 2 3.25
0 2 3.5
0 1.75 3.75
0 2 3.75
0 1.75 3.5
0 2 3.5
0 1.75 4
0 2 4
0 1.75 3.75
0 2 3.75
0 1.75 4
0 1.75 4.25
0 2 4
0 2 4.25
0 1.75 4.5
0 2 4.5
0 1.75 4.25
0 2 4.25
0 1.75 4.75
0 2 4.75
0 1.75 4.5
0 2 4.5
0 1.75 4.75
0 1.75 5
0 2 4.75
0 2 5
0 1.75 5.25
0 2 5.25
0 1.75 5
0 2 5
0 1.75 5.25
0 1.75 5.5
0 2 5.25
0 2 5.5
0 1.75 5.75
0 2 5.75
0 1.75 5.5
0 2 5.5
0 1.75 5.75
0 1.75 6
0 2 5.75
0 2 6
0 0.75 5.75
0 0.5 5.75
0 0.75 6
0 0.5 6
0 0.5 5.75
0 0.25 5.75
0 0.5 6
0 0.25 6
0 0.75 5.75
0 0.75 6
0 1 5.75
0 1 6
0 1.25 5.75
0 1 5.75
0 1.25 6
0 1 6
0 1.25 5.75
0 1.25 6
0 1.5 5.75
0 1.5 6
0 1.75 5.75
0 1.5 5.75
0 1.75 6
0 1.5 6
0 2.5 0.25
0 2.5 0.5
0 2.75 0.25
0 2.75 0.5
0 1.25 0.25
0 1 0.25
0 1.25 0.5
0 1 0.5
0 0.75 0.25
0 0.75 0.5
0 1 0.25
0 1 0.5
0 0.5 4.75
0 0.25 4.75
0 0.5 5
0 0.25 5
0 0.5 0.25
0 0.25 0.25
0 0.5 0.5
0 0.25 0.5
0 0.75 5.75
0 1 5.75
0 0.75 5.5
0 1 5.5
0 1.75 5.75
0 1.75 5.5
0 1.5 5.75
0 1.5 5.5
0 0.5 5.75
0 0.5 5.5
0 0.25 5.75
0 0.25 5.5
0 0.5 5.25
0 0.25 5.25
0 0.5 5.5
0 0.25 5.5
0 0.5 0.75
0 0.5 0.5
0 0.25 0.75
0 0.25 0.5
0 0.5 1.5
0 0.5 1.25
0 0.25 1.5
0 0.25 1.25
0 0.5 2
0 0.25 2
0 0.5 2.25
0 0.25 2.25
0 0.5 3
0 0.5 2.75
0 0.25 3
0 0.25 2.75
0 0.5 3.75
0 0.5 3.5
0 0.25 3.75
0 0.25 3.5
0 0.5 4.5
0 0.5 4.25
0 0.25 4.5
0 0.25 4.25
0 0.5 4.75
0 0.5 4.5
0 0.25 4.75
0 0.25 4.5
0 2 0.25
0 2 0.5
0 2.25 0.25
0 2.25 0.5
0 2.5 0.25
0 2.25 0.25
0 2.5 0.5
0 2.25 0.5
0 1.25 0.25
0 1.25 0.5
0 1.5 0.25
0 1.5 0.5
0 3.5 1
0 3.75 1
0 3.5 0.75
0 3.75 0.75
0 3.5 1.75
0 3.75 1.75
0 3.5 1.5
0 3.75 1.5
0 3 1.75
0 3 1.5
0 2.75 1.75
0 2.75 1.5
0 1.75 3
0 1.75 2.75
0 1.5 3
0 1.5 2.75
0 1.75 3.75
0 1.75 3.5
0 1.5 3.75
0 1.5 3.5
0 1.75 4.5
0 1.75 4.25
0 1.5 4.5
0 1.5 4.25
0 1.75 5.25
0 1.75 5
0 1.5 5.25
0 1.5 5
0 1.25 5.75
0 1.5 5.75
0 1.25 5.5
0 1.5 5.5
0 1.25 5.75
0 1.25 5.5
0 1 5.75
0 1 5.5
0 0.5 1
0 0.25 1
0 0.5 1.25
0 0.25 1.25
0 1.75 1.75
0 1.75 2
0 2 1.75
0 2 2
0 2 1.75
0 2.25 1.75
0 2 1.5
0 2.25 1.5
0 0.5 1.75
0 0.25 1.75
0 0.5 2
0 0.25 2
0 1.75 0.25
0 1.75 0.5
0 2 0.25
0 2 0.5
0 0.5 2.5
0 0.25 2.5
0 0.5 2.75
0 0.25 2.75
0 0.5 3.25
0 0.25 3.25
0 0.5 3.5
0 0.25 3.5
0 0.5 4
0 0.25 4
0 0.5 4.25
0 0.25 4.25
0 3 1.75
0 3.25 1.75
0 3 1.5
0 3.25 1.5
0 1.75 3.25
0 1.75 3
0 1.5 3.25
0 1.5 3
0 1.75 4
0 1.75 3.75
0 1.5 4
0 1.5 3.75
0 1.75 4.75
0 1.75 4.5
0 1.5 4.75
0 1.5 4.5
0 3.5 1
0 3.5 1.25
0 3.75 1
0 3.75 1.25
0 1.75 5.25
0 1.5 5.25
0 1.75 5.5
0 1.5 5.5
0 1.25 5.25
0 1.25 5.5
0 1.5 5.25
0 1.5 5.5
0 3.5 1.5
0 3.75 1.5
0 3.5 1.25
0 3.75 1.25
0 3.5 1.75
0 3.5 1.5
0 3.25 1.75
0 3.25 1.5
0 1.75 2
0 1.5 2
0 1.75 2.25
0 1.5 2.25
0 0.5 1
0 0.5 0.75
0 0.25 1
0 0.25 0.75
0 0.5 1.75
0 0.5 1.5
0 0.25 1.75
0 0.25 1.5
0 0.5 2.5
0 0.5 2.25
0 0.25 2.5
0 0.25 2.25
0 0.5 3.25
0 0.5 3
0 0.25 3.25
0 0.25 3
0 0.5 4
0 0.5 3.75
0 0.25 4
0 0.25 3.75
0 0.5 5.25
0 0.5 5
0 0.25 5.25
0 0.25 5
0 3.5 0.25
0 3.5 0.5
0 3.75 0.25
0 3.75 0.5
0 3.5 0.25
0 3.25 0.25
0 3.5 0.5
0 3.25 0.5
0 3 0.25
0 2.75 0.25
0 3 0.5
0 2.75 0.5
0 3 0.25
0 3 0.5
0 3.25 0.25
0 3.25 0.5
0 1.75 0.25
0 1.5 0.25
0 1.75 0.5
0 1.5 0.5
0 0.75 0.25
0 0.5 0.25
0 0.75 0.5
0 0.5 0.5
0 3.5 0.75
0 3.75 0.75
0 3.5 0.5
0 3.75 0.5
0 2.5 1.75
0 2.5 1.5
0 2.25 1.75
0 2.25 1.5
0 2.5 1.75
0 2.75 1.75
0 2.5 1.5
0 2.75 1.5
0 1.75 2.5
0 1.75 2.25
0 1.5 2.5
0 1.5 2.25
0 1.75 2.5
0 1.5 2.5
0 1.75 2.75
0 1.5 2.75
0 1.75 3.25
0 1.5 3.25
0 1.75 3.5
0 1.5 3.5
0 1.75 4
0 1.5 4
0 1.75 4.25
0 1.5 4.25
0 1.75 4.75
0 1.5 4.75
0 1.75 5
0 1.5 5
0 0.75 5.75
0 0.75 5.5
0 0.5 5.75
0 0.5 5.5
0 1.75 1.75
0 2 1.75
0 1.75 1.5
0 2 1.5
0 1.75 1.75
0 1.5 1.75
0 1.75 2
0 1.5 2
0 1.25 0.75
0 1.5 0.75
0 1.25 0.5
0 1.5 0.5
0 1.25 0.75
0 1.25 0.5
0 1 0.75
0 1 0.5
0 1.25 5.25
0 1 5.25
0 1.25 5.5
0 1 5.5
0 3.5 0.75
0 3.5 0.5
0 3.25 0.75
0 3.25 0.5
0 3.5 1
0 3.5 0.75
0 3.25 1
0 3.25 0.75
0 0.75 0.75
0 0.75 0.5
0 0.5 0.75
0 0.5 0.5
0 0.75 1.5
0 0.75 1.25
0 0.5 1.5
0 0.5 1.25
0 0.75 2
0 0.5 2
0 0.75 2.25
0 0.5 2.25
0 0.75 3
0 0.75 2.75
0 0.5 3
0 0.5 2.75
0 0.75 3.75
0 0.75 3.5
0 0.5 3.75
0 0.5 3.5
0 1.25 3.75
0 1.5 3.75
0 1.25 3.5
0 1.5 3.5
0 1.25 4.5
0 1.5 4.5
0 1.25 4.25
0 1.5 4.25
0 1.25 5.25
0 1.5 5.25
0 1.25 5
0 1.5 5
0 2.5 0.75
0 2.75 0.75
0 2.5 0.5
0 2.75 0.5
0 0.75 4.75
0 0.5 4.75
0 0.75 5
0 0.5 5
0 0.75 5.25
0 0.5 5.25
0 0.75 5.5
0 0.5 5.5
0 0.75 5.25
0 0.75 5
0 0.5 5.25
0 0.5 5
0 0.75 5.25
0 0.75 5.5
0 1 5.25
0 1 5.5
0 0.75 4.5
0 0.75 4.25
0 0.5 4.5
0 0.5 4.25
0 0.75 4.75
0 0.75 4.5
0 0.5 4.75
0 0.5 4.5
0 2 0.75
0 2.25 0.75
0 2 0.5
0 2.25 0.5
0 2.5 0.75
0 2.5 0.5
0 2.25 0.75
0 2.25 0.5
0 3 1.5
0 3 1.25
0 2.75 1.5
0 2.75 1.25
0 1.25 3
0 1.5 3
0 1.25 2.75
0 1.5 2.75
0 0.75 1
0 0.5 1
0 0.75 1.25
0 0.5 1.25
0 0.75 1
0 0.75 0.75
0 0.5 1
0 0.5 0.75
0 0.75 1.75
0 0.5 1.75
0 0.75 2
0 0.5 2
0 0.75 1.75
0 0.75 1.5
0 0.5 1.75
0 0.5 1.5
0 1.75 0.75
0 1.75 0.5
0 1.5 0.75
0 1.5 0.5
0 1.75 0.75
0 2 0.75
0 1.75 0.5
0 2 0.5
0 0.75 2.5
0 0.5 2.5
0 0.75 2.75
0 0.5 2.75
0 0.75 2.5
0 0.75 2.25
0 0.5 2.5
0 0.5 2.25
0 0.75 3.25
0 0.5 3.25
0 0.75 3.5
0 0.5 3.5
0 0.75 3.25
0 0.75 3
0 0.5 3.25
0 0.5 3
0 0.75 4
0 0.5 4
0 0.75 4.25
0 0.5 4.25
0 0.75 4
0 0.75 3.75
0 0.5 4
0 0.5 3.75
0 3.5 1.5
0 3.5 1.25
0 3.25 1.5
0 3.25 1.25
0 3 1.5
0 3.25 1.5
0 3 1.25
0 3.25 1.25
0 1.25 3.25
0 1.5 3.25
0 1.25 3
0 1.5 3
0 1.25 3.25
0 1.25 3.5
0 1.5 3.25
0 1.5 3.5
0 1.25 4
0 1.5 4
0 1.25 3.75
0 1.5 3.75
0 1.25 4
0 1.25 4.25
0 1.5 4
0 1.5 4.25
0 1.25 4.75
0 1.5 4.75
0 1.25 4.5
0 1.5 4.5
0 1.25 4.75
0 1.25 5
0 1.5 4.75
0 1.5 5
0 3.5 1
0 3.25 1
0 3.5 1.25
0 3.25 1.25
0 0.75 3.75
0 1 3.75
0 0.75 3.5
0 1 3.5
0 0.75 3.25
0 0.75 3.5
0 1 3.25
0 1 3.5
0 3 1
0 3 1.25
0 3.25 1
0 3.25 1.25
0 0.75 4.5
0 1 4.5
0 0.75 4.25
0 1 4.25
0 0.75 4
0 0.75 4.25
0 1 4
0 1 4.25
0 1.25 3
0 1.25 2.75
0 1 3
0 1 2.75
0 1.25 3.25
0 1.25 3
0 1 3.25
0 1 3
0 2.5 1
0 2.5 0.75
0 2.25 1
0 2.25 0.75
0 0.75 4.75
0 1 4.75
0 0.75 4.5
0 1 4.5
0 1.25 3.75
0 1.25 3.5
0 1 3.75
0 1 3.5
0 1.25 3.25
0 1 3.25
0 1.25 3.5
0 1 3.5
0 0.75 0.75
0 1 0.75
0 0.75 0.5
0 1 0.5
0 2 1.5
0 2.25 1.5
0 2 1.25
0 2.25 1.25
0 1.25 2
0 1.25 2.25
0 1.5 2
0 1.5 2.25
0 3 0.75
0 3.25 0.75
0 3 0.5
0 3.25 0.5
0 3 0.75
0 3 0.5
0 2.75 0.75
0 2.75 0.5
0 2.5 1.5
0 2.5 1.25
0 2.25 1.5
0 2.25 1.25
0 2.5 1.5
0 2.75 1.5
0 2.5 1.25
0 2.75 1.25
0 1.25 2.5
0 1.5 2.5
0 1.25 2.25
0 1.5 2.25
0 1.25 2.5
0 1.25 2.75
0 1.5 2.5
0 1.5 2.75
0 0.75 5.25
0 1 5.25
0 0.75 5
0 1 5
0 0.75 4.75
0 0.75 5
0 1 4.75
0 1 5
0 1.25 5.25
0 1.25 5
0 1 5.25
0 1 5
0 3 1
0 3.25 1
0 3 0.75
0 3.25 0.75
0 0.75 1.5
0 1 1.5
0 0.75 1.25
0 1 1.25
0 0.75 2
0 0.75 2.25
0 1 2
0 1 2.25
0 0.75 3
0 1 3
0 0.75 2.75
0 1 2.75
0 0.75 3.25
0 1 3.25
0 0.75 3
0 1 3
0 1.25 4.5
0 1.25 4.25
0 1 4.5
0 1 4.25
0 1.25 4
0 1 4
0 1.25 4.25
0 1 4.25
0 1.25 4.75
0 1 4.75
0 1.25 5
0 1 5
0 0.75 1
0 0.75 1.25
0 1 1
0 1 1.25
0 1.25 1
0 1 1
0 1.25 1.25
0 1 1.25
0 1.75 1.75
0 1.75 1.5
0 1.5 1.75
0 1.5 1.5
0 1.75 1.5
0 2 1.5
0 1.75 1.25
0 2 1.25
0 2 1
0 2 1.25
0 2.25 1
0 2.25 1.25
0 2.5 1
0 2.25 1
0 2.5 1.25
0 2.25 1.25
0 1.25 2
0 1 2
0 1.25 2.25
0 1 2.25
0 3 1
0 3 0.75
0 2.75 1
0 2.75 0.75
0 2.5 1
0 2.75 1
0 2.5 0.75
0 2.75 0.75
0 3 1
0 2.75 1
0 3 1.25
0 2.75 1.25
0 2.5 1
0 2.5 1.25
0 2.75 1
0 2.75 1.25
0 0.75 1
0 1 1
0 0.75 0.75
0 1 0.75
0 1.25 1.75
0 1.25 2
0 1.5 1.75
0 1.5 2
0 1.25 1
0 1.5 1
0 1.25 0.75
0 1.5 0.75
0 1.25 1
0 1.25 0.75
0 1 1
0 1 0.75
0 2 1
0 2.25 1
0 2 0.75
0 2.25 0.75
0 0.75 1.75
0 0.75 2
0 1 1.75
0 1 2
0 0.75 1.75
0 1 1.75
0 0.75 1.5
0 1 1.5
0 1.75 1
0 1.75 0.75
0 1.5 1
0 1.5 0.75
0 1.75 1
0 2 1
0 1.75 0.75
0 2 0.75
0 0.75 2.5
0 0.75 2.75
0 1 2.5
0 1 2.75
0 0.75 2.5
0 1 2.5
0 0.75 2.25
0 1 2.25
0 0.75 4
0 1 4
0 0.75 3.75
0 1 3.75
0 1.25 4
0 1.25 3.75
0 1 4
0 1 3.75
0 1.25 4.75
0 1.25 4.5
0 1 4.75
0 1 4.5
0 1.25 2.5
0 1 2.5
0 1.25 2.75
0 1 2.75
0 1.25 1
[...]
POINT_DATA 4608
SCALARS phi double 1
LOOKUP_TABLE default
-1.41077 -2.16563 -2.6309 -3.73231 -0.407773 -0.913078 -2.16563 -3.17022 1.49151 0.968912 1.53143 1 1.49151 1.53143 2.07689 2.12815 2.73283 2.07689 2.79864 2.12815 3.47525 3.55975 4.33082 4.43933 3.47525 2.73283 3.55975 2.79864 5.33986 4.33082 5.47918 4.43933 6.55969 6.73859 8.06865 8.29835 6.55969 5.33986 6.73859 5.47918 8.06865 8.29835 9.97086 10.2658 12.4022 12.781 15.538 16.0243 12.4022 9.97086 12.781 10.2658 19.6022 15.538 20.2267 16.0243 24.8804 25.6821 31.7352 32.7647 24.8804 19.6022 25.6821 20.2267 40.6276 31.7352 41.9495 32.7647 52.144 53.8413 67.031 69.2104 52.144 40.6276 53.8413 41.9495 86.2412 67.031 89.0396 69.2104 110.992 114.585 142.84 147.454 110.992 86.2412 114.585 89.0396 183.783 142.84 189.707 147.454 183.783 189.707 236.38 243.986 303.915 313.682 390.608 403.149 303.915 236.38 313.682 243.986 -0.806215 -0.591891 -0.820559 -0.653644 -0.95503 -0.936457 -1.02908 -0.99413 -0.95503 -0.806215 -0.936457 -0.820559 -1.02377 -0.989992 -0.939424 -0.924302 -1.02377 -1.02908 -0.989992 -0.99413 -0.781285 -0.939424 -0.801144 -0.924302 -0.781285 -0.801144 -0.559187 -0.628174 -0.286939 -0.559187 -0.416147 -0.628174 0.0185315 -0.286939 -0.178246 -0.416147 0.0185315 -0.178246 0.338232 0.0707372 0.652286 0.315322 0.941166 0.540302 0.652286 0.338232 0.315322 0.0707372 1.18691 0.941166 0.731689 0.540302 1.18691 0.731689 1.37424 0.877583 1.37424 0.877583 1.49151 0.968912 -0.806215 -0.873448 -0.591891 -0.598251 -1.05549 -0.702125 -0.873448 -0.598251 -1.38904 -0.935317 -1.05549 -0.702125 -1.38904 -1.91505 -0.935317 -1.33246 -2.68 -1.93193 -1.91505 -1.33246 -3.73801 -2.77747 -2.68 -1.93193 -3.73801 -5.15386 -2.77747 -3.92051 -3.62628 -2.6309 -5.0104 -3.73231 -3.62628 -5.0104 -4.33501 -5.92042 -4.71303 -4.33501 -6.40581 -5.92042 -4.71303 -6.40581 -4.73684 -6.43638 -4.40495 -4.73684 -6.01023 -6.43638 -4.40495 -6.01023 -3.73801 -5.15386 -1.57301 -4.47123 -0.913078 -3.17022 -1.57301 -2.40658 -4.47123 -6.12797 -3.43905 -8.21741 -2.40658 -6.12797 -4.70522 -10.8408 -3.43905 -8.21741 -4.70522 -6.25348 -10.8408 -14.1317 -8.15078 -18.2666 -6.25348 -14.1317 -10.4887 -23.4776 -8.15078 -18.2666 -10.4887 -13.391 -23.4776 -30.0691 -17.0227 -38.4379 -13.391 -30.0691 -21.6017 -49.0993 -17.0227 -38.4379 -21.6017 -27.413 -49.0993 -62.7206 -34.8266 -80.1625 -27.413 -62.7206 -34.8266 -44.3209 -80.1625 -102.533 -56.5115 -131.258 -44.3209 -102.533 -56.5115 -72.189 -131.258 -168.165 229.382 275.22 294.905 353.763 275.22 303.915 353.763 390.608 229.382 294.905 169.25 217.694 98.5631 169.25 126.931 217.694 98.5631 126.931 21.7167 28.258 -56.5115 21.7167 -72.189 28.258 -0.781285 -0.841437 -0.939424 -1.04449 0.652286 0.941166 0.999304 1.37023 1.18691 1.68578 0.941166 1.37023 100.435 110.992 129.286 142.84 1.37424 1.49151 1.92631 2.07689 229.382 169.25 178.333 131.502 -56.5115 -44.3209 21.7167 16.6033 275.22 214.032 303.915 236.38 166.379 183.783 214.032 236.38 2.53948 1.92631 2.73283 2.07689 4.93055 4.01205 5.33986 4.33082 7.3938 8.06865 9.10434 9.97086 17.7678 14.1094 19.6022 15.538 36.7442 28.7108 40.6276 31.7352 78.0199 60.6283 86.2412 67.031 100.435 78.0199 110.992 86.2412 -0.286939 -0.206685 -0.559187 -0.556258 -0.781285 -0.559187 -0.841437 -0.556258 0.652286 0.999304 0.338232 0.596051 -1.70408 -1.38904 -1.30084 -1.05549 -4.40495 -3.73801 -3.19941 -2.68 -4.71303 -3.43934 -4.33501 -3.14494 -3.43905 -2.40658 1.56191 1.48818 -8.15078 -6.25348 2.43626 1.99171 -17.0227 -13.391 5.39003 4.06407 -34.8266 -27.413 12.6212 9.53941 98.5631 21.7167 76.4513 16.6033 98.5631 76.4513 169.25 131.502 3.22699 3.47525 4.01205 4.33082 -0.0417493 -0.407773 -1.41077 -2.16563 -1.41077 -2.6309 -0.867546 -1.81778 6.03412 6.55969 7.3938 8.06865 0.0185315 0.185547 -0.286939 -0.206685 11.2896 12.4022 14.1094 15.538 22.525 24.8804 28.7108 31.7352 47.1576 52.144 60.6283 67.031 -4.71303 -4.73684 -3.43934 -3.45789 -4.70522 -3.43905 1.71614 1.56191 -10.4887 -8.15078 3.10532 2.43626 -21.6017 -17.0227 7.17682 5.39003 -1.70408 -2.31957 -1.38904 -1.91505 -34.8266 12.6212 -44.3209 16.6033 59.2309 76.4513 12.6212 16.6033 -3.19941 -2.68 -2.31957 -1.91505 -4.40495 -3.19941 -4.73684 -3.45789 -0.407773 1.43198 -0.913078 1.44921 3.22699 2.53948 3.47525 2.73283 6.03412 4.93055 6.55969 5.33986 11.2896 9.10434 12.4022 9.97086 22.525 17.7678 24.8804 19.6022 47.1576 36.7442 52.144 40.6276 166.379 129.286 183.783 142.84 -0.95503 -1.06453 -0.806215 -0.873448 -0.95503 -1.02908 -1.06453 -1.15962 -1.02377 -0.939424 -1.1528 -1.04449 -1.02377 -1.1528 -1.02908 -1.15962 0.0185315 0.338232 0.185547 0.596051 1.18691 1.37424 1.68578 1.92631 -1.30084 -1.05549 -1.06453 -0.873448 -3.62628 -2.59298 -2.6309 -1.81778 -3.62628 -4.33501 -2.59298 -3.14494 -1.57301 -0.913078 1.46023 1.44921 -1.57301 1.46023 -2.40658 1.48818 -4.70522 1.71614 -6.25348 1.99171 -10.4887 3.10532 -13.391 4.06407 -21.6017 7.17682 -27.413 9.53941 229.382 178.333 275.22 214.032 -0.0417493 -1.41077 0.198652 -0.867546 -0.0417493 1.39105 -0.407773 1.43198 1.34918 0.831389 0.999304 0.596051 1.34918 0.999304 1.82546 1.37023 59.2309 102.104 76.4513 131.502 -1.30084 -1.06453 -1.42293 -1.15962 -1.70408 -1.30084 -1.86085 -1.42293 2.23062 1.68578 2.53948 1.92631 4.2767 3.50283 4.93055 4.01205 6.31579 7.3938 7.72014 9.10434 14.8375 11.8272 17.7678 14.1094 30.5406 23.8794 36.7442 28.7108 12.8363 2.43626 10.0913 1.99171 27.4069 5.39003 21.2108 4.06407 59.2309 12.6212 45.8391 9.53941 -1.01438 -1.27511 -0.841437 -1.04449 83.5724 100.435 107.633 129.286 138.576 166.379 178.333 214.032 138.576 107.633 166.379 129.286 138.576 178.333 102.104 131.502 64.887 50.4004 78.0199 60.6283 83.5724 64.887 100.435 78.0199 -0.199344 -0.648205 -0.206685 -0.556258 -1.01438 -0.841437 -0.648205 -0.556258 -3.43934 -2.50643 -3.14494 -2.27715 6.47454 1.56191 5.31413 1.48818 2.83041 3.22699 3.50283 4.01205 2.83041 2.23062 3.22699 2.53948 5.19456 6.03412 6.31579 7.3938 5.19456 4.2767 6.03412 4.93055 0.304292 0.185547 0.831389 0.596051 0.304292 -0.199344 0.185547 -0.206685 9.51227 11.2896 11.8272 14.1094 9.51227 7.72014 11.2896 9.10434 18.7623 22.525 23.8794 28.7108 18.7623 14.8375 22.525 17.7678 39.1921 47.1576 50.4004 60.6283 39.1921 30.5406 47.1576 36.7442 -3.19941 -2.31957 -3.45789 -2.52087 -3.43934 -3.45789 -2.50643 -2.52087 8.02408 1.71614 6.47454 1.56191 8.02408 10.0913 1.71614 1.99171 16.4592 3.10532 12.8363 2.43626 16.4592 21.2108 3.10532 4.06407 35.447 7.17682 27.4069 5.39003 35.447 45.8391 7.17682 9.53941 -1.70408 -1.86085 -2.31957 -2.52087 30.5406 22.4027 23.8794 17.5416 18.7623 23.8794 13.8264 17.5416 -1.84961 -2.50643 -1.86085 -2.52087 64.887 47.6589 50.4004 36.9831 39.1921 50.4004 28.7427 36.9831 6.47454 5.31413 10.9934 8.83341 8.02408 6.47454 13.8264 10.9934 -1.33626 -1.01438 -0.866082 -0.648205 83.5724 61.4512 64.887 47.6589 12.8363 10.0913 22.4027 17.5416 8.02408 13.8264 10.0913 17.5416 2.23062 1.82546 1.68578 1.37023 -0.867546 -1.81778 -0.503511 -1.24356 3.23923 3.76977 1.43198 1.44921 -1.41418 -1.42293 -1.1528 -1.15962 -1.41418 -1.1528 -1.27511 -1.04449 -2.59298 -1.84728 -1.81778 -1.24356 -2.59298 -3.14494 -1.84728 -2.27715 4.43989 1.46023 3.76977 1.44921 4.43989 5.31413 1.46023 1.48818 138.576 102.104 107.633 79.229 83.5724 107.633 61.4512 79.229 59.2309 45.8391 102.104 79.229 -1.84961 -1.86085 -1.41418 -1.42293 4.2767 3.41896 3.50283 2.83483 6.31579 7.72014 4.90162 5.90432 14.8375 10.9934 11.8272 8.83341 18.7623 13.8264 14.8375 10.9934 27.4069 21.2108 47.6589 36.9831 16.4592 28.7427 21.2108 36.9831 35.447 61.4512 45.8391 79.229 2.83041 3.50283 2.31016 2.83483 1.69861 2.31016 2.04957 2.83483 -0.0417493 0.198652 1.39105 1.31452 0.198652 -0.867546 0.326845 -0.503511 -0.289733 -0.503511 -0.866082 -1.24356 -1.33626 -0.866082 -1.84728 -1.24356 3.23923 4.90162 3.76977 5.90432 -1.84961 -1.41418 -1.67104 -1.27511 -1.33626 -1.67104 -1.01438 -1.27511 -1.84961 -1.67104 -2.50643 -2.27715 -1.33626 -1.84728 -1.67104 -2.27715 2.83041 2.31016 2.23062 1.82546 2.79854 3.23923 1.39105 1.43198 1.69861 1.03375 1.34918 0.831389 1.69861 1.34918 2.31016 1.82546 -0.289733 -0.866082 -0.199344 -0.648205 5.19456 6.31579 4.09321 4.90162 5.19456 4.09321 4.2767 3.41896 0.356948 0.304292 1.03375 0.831389 0.356948 -0.289733 0.304292 -0.199344 9.51227 11.8272 7.1807 8.83341 9.51227 7.1807 7.72014 5.90432 39.1921 28.7427 30.5406 22.4027 16.4592 12.8363 28.7427 22.4027 35.447 27.4069 61.4512 47.6589 4.43989 7.1807 5.31413 8.83341 1.69861 2.04957 1.03375 1.19588 0.356948 1.03375 0.326845 1.19588 2.41067 2.04957 3.41896 2.83483 2.79854 2.41067 4.09321 3.41896 2.41067 1.31452 2.04957 1.19588 0.198652 0.326845 1.31452 1.19588 2.79854 1.39105 2.41067 1.31452 0.356948 0.326845 -0.289733 -0.503511 2.79854 4.09321 3.23923 4.90162 4.43989 3.76977 7.1807 5.90432 1.68422 2.42982 1.59414 2.25669 1.80085 2.65518 1.68422 2.42982 1.59414 1.53143 1 1 1.59414 2.25669 1.53143 2.12815 2.98702 2.79864 2.25669 2.12815 3.79672 4.70838 3.55975 4.43933 3.79672 3.55975 2.98702 2.79864 5.76238 5.47918 4.70838 4.43933 7.01806 6.73859 5.76238 5.47918 8.55661 10.4868 8.29835 10.2658 7.01806 8.55661 6.73859 8.29835 12.9509 12.781 10.4868 10.2658 12.9509 16.1327 12.781 16.0243 25.6514 25.6821 20.2667 20.2267 20.2667 20.2267 16.1327 16.0243 25.6514 32.665 25.6821 32.7647 41.7872 41.9495 32.665 32.7647 53.6264 68.9562 53.8413 69.2104 53.6264 53.8413 41.7872 41.9495 88.762 89.0396 68.9562 69.2104 114.301 114.585 88.762 89.0396 189.463 189.707 147.182 147.454 114.301 147.182 114.585 147.454 189.463 243.786 189.707 243.986 313.538 313.682 243.786 243.986 313.538 403.07 313.682 403.149 1.80085 1.68422 1 1 1.80085 1 1.95334 1 2.14648 1.95334 1 1 2.14648 1 2.39264 1 2.39264 1 2.70773 1 2.70773 1 3.11211 1 313.353 402.968 313.538 403.07 313.115 312.809 402.837 402.669 313.115 402.837 313.353 402.968 312.417 402.454 312.809 402.669 312.417 311.913 402.454 402.177 311.266 310.435 401.821 401.364 311.913 311.266 402.177 401.821 2.70773 3.11211 4.40759 5.19122 7.56061 6.03951 8.93596 7.15367 6.03951 4.40759 7.15367 5.19122 7.56061 8.93596 8.95137 10.5024 11.4171 10.2219 13.0253 11.8522 10.2219 8.95137 11.8522 10.5024 11.4171 13.0253 12.6217 14.1079 12.6217 14.1079 13.9652 15.237 15.6265 13.9652 16.6046 15.237 20.8976 17.8389 21.1283 18.4627 15.6265 16.6046 17.8389 18.4627 25.1677 20.8976 24.9909 21.1283 39.232 31.0968 38.2978 30.5235 25.1677 24.9909 31.0968 30.5235 50.2431 39.232 49.0061 38.2978 50.2431 49.0061 64.9551 63.4923 84.3918 64.9551 82.7941 63.4923 109.834 108.2 142.895 141.328 109.834 84.3918 108.2 82.7941 185.623 142.895 184.22 141.328 311.266 240.632 310.435 239.479 185.623 184.22 240.632 239.479 13.1692 12.9509 10.7706 10.4868 88.4055 88.762 68.6298 68.9562 10.1645 8.95214 11.4171 10.2219 10.1645 11.4171 11.4642 12.6217 39.9595 31.5434 39.232 31.0968 51.2064 39.9595 50.2431 39.232 3.23357 2.98702 2.42982 2.25669 311.913 241.53 311.266 240.632 312.417 242.229 311.913 241.53 13.1692 16.2719 12.9509 16.1327 20.3182 20.2667 16.2719 16.1327 113.937 114.301 88.4055 88.762 113.937 146.832 114.301 147.182 1.80085 1.95334 2.65518 2.94741 2.39264 2.70773 3.79702 4.40759 313.353 313.538 243.529 243.786 6.48937 7.56061 7.74335 8.95137 8.95214 7.74335 10.2219 8.95137 14.8647 12.9748 15.6265 13.9652 25.3054 20.718 25.1677 20.8976 25.3054 25.1677 31.5434 31.0968 85.6361 66.0943 84.3918 64.9551 186.717 144.116 185.623 142.895 6.48937 5.17157 7.56061 6.03951 11.4642 12.6217 12.9748 13.9652 20.718 17.3531 20.8976 17.8389 51.2064 50.2431 66.0943 64.9551 2.14648 3.32029 1.95334 2.94741 3.55441 2.65518 3.96624 2.94741 4.49463 3.96624 3.32029 2.94741 111.106 109.834 144.116 142.895 112.096 111.106 145.066 144.116 2.14648 2.39264 3.32029 3.79702 5.17157 3.79702 6.03951 4.40759 4.10242 5.05398 3.79672 4.70838 4.10242 3.79672 3.23357 2.98702 7.37689 7.01806 6.12602 5.76238 6.12602 5.76238 5.05398 4.70838 7.37689 8.88823 7.01806 8.55661 8.88823 10.7706 8.55661 10.4868 25.612 25.6514 20.3182 20.2667 41.5787 41.7872 32.5371 32.665 25.612 32.5371 25.6514 32.665 53.3504 53.6264 41.5787 41.7872 53.3504 68.6298 53.6264 68.9562 189.15 189.463 146.832 147.182 189.15 243.529 189.463 243.786 313.115 243.198 312.809 242.774 313.115 313.353 243.198 243.529 312.417 312.809 242.229 242.774 14.8647 15.6265 17.3531 17.8389 111.106 85.6361 109.834 84.3918 186.717 185.623 241.53 240.632 7.83762 9.31403 7.37689 8.88823 7.83762 7.37689 6.59312 6.12602 41.3111 41.5787 32.3728 32.5371 52.996 53.3504 41.3111 41.5787 7.96318 6.80234 8.95214 7.74335 25.4127 25.3054 31.8911 31.5434 188.748 243.198 189.15 243.529 6.59312 6.12602 5.49824 5.05398 188.748 188.231 243.198 242.774 3.55441 3.23357 2.65518 2.42982 187.568 186.717 242.229 241.53 187.568 145.066 186.717 144.116 14.2714 12.2035 14.8647 12.9748 86.6052 66.9816 85.6361 66.0943 112.096 86.6052 111.106 85.6361 13.4495 13.1692 11.1349 10.7706 9.31403 11.1349 8.88823 10.7706 87.9477 88.4055 68.2107 68.6298 52.996 68.2107 53.3504 68.6298 10.5628 11.4642 12.2035 12.9748 9.18902 10.1645 10.5628 11.4642 51.9566 51.2064 66.9816 66.0943 51.9566 40.5261 51.2064 39.9595 187.568 242.229 188.231 242.774 25.5613 25.612 20.3843 20.3182 188.748 189.15 146.383 146.832 5.65465 6.48937 6.80234 7.74335 25.4127 20.5781 25.3054 20.718 4.49463 3.32029 5.17157 3.79702 5.65465 4.49463 6.48937 5.17157 20.5781 16.9748 20.718 17.3531 14.2714 14.8647 16.9748 17.3531 25.5613 32.3728 25.612 32.5371 25.5613 20.3843 25.4962 20.4691 25.5613 25.4962 32.3728 32.1619 13.4495 16.4506 13.1692 16.2719 13.4495 11.1349 13.8093 11.6028 113.469 113.937 87.9477 88.4055 113.469 87.9477 112.868 87.3599 87.9477 68.2107 87.3599 67.6726 25.4127 25.4962 20.5781 20.4691 25.4127 31.8911 25.4962 32.1619 9.18902 7.96318 10.1645 8.95214 40.5261 31.8911 39.9595 31.5434 20.3843 20.3182 16.4506 16.2719 113.469 146.383 113.937 146.832 4.49658 4.10242 3.55441 3.23357 4.49658 3.55441 5.00385 3.96624 5.65465 5.00385 4.49463 3.96624 187.568 188.231 145.066 145.807 112.096 145.066 112.868 145.807 4.49658 5.49824 4.10242 5.05398 5.65465 6.80234 5.00385 6.06908 188.748 146.383 188.231 145.807 14.2714 13.8093 12.2035 11.6028 9.31403 9.86076 11.1349 11.6028 7.83762 8.42929 9.31403 9.86076 52.996 52.5409 68.2107 67.6726 52.996 41.3111 52.5409 40.9674 4.49658 5.00385 5.49824 6.06908 6.59312 5.49824 7.19285 6.06908 7.83762 6.59312 8.42929 7.19285 112.096 112.868 86.6052 87.3599 113.469 112.868 146.383 145.807 7.96318 7.19285 6.80234 6.06908 9.18902 8.42929 7.96318 7.19285 86.6052 87.3599 66.9816 67.6726 10.5628 12.2035 9.86076 11.6028 9.18902 10.5628 8.42929 9.86076 40.5261 40.9674 31.8911 32.1619 51.9566 66.9816 52.5409 67.6726 51.9566 52.5409 40.5261 40.9674 20.5781 20.4691 16.9748 16.6801 14.2714 16.9748 13.8093 16.6801 20.3843 16.4506 20.4691 16.6801 13.4495 13.8093 16.4506 16.6801 41.3111 32.3728 40.9674 32.1619 1.68422 1.59414 1 1 0.969325 1 0.968912 1 -0.820559 -0.820559 -0.653644 -0.653644 -0.936457 -0.936457 -0.820559 -0.820559 -0.989992 -0.989992 -0.99413 -0.99413 -0.936457 -0.99413 -0.936457 -0.99413 -0.989992 -0.924302 -0.989992 -0.924302 -0.801144 -0.628174 -0.801144 -0.628174 -0.801144 -0.801144 -0.924302 -0.924302 -0.416147 -0.416147 -0.628174 -0.628174 -0.178245 0.0707423 -0.178246 0.0707372 -0.178245 -0.178246 -0.416147 -0.416147 0.315374 0.315322 0.0707423 0.0707372 0.315374 0.54051 0.315322 0.540302 0.732204 0.731689 0.54051 0.540302 0.732204 0.878555 0.731689 0.877583 0.878555 0.969325 0.877583 0.968912 0.969177 1 0.969325 1 0.969041 1 0.969177 1 0.968917 1 0.968947 1 0.969041 0.968947 1 1 0.968917 0.968913 1 1 0.968913 0.968912 1 1 0.968912 0.968912 1 1 -0.820559 -0.653644 -0.820559 -0.653644 -0.936457 -0.820559 -0.936457 -0.820559 -0.936457 -0.936457 -0.99413 -0.99413 -0.989992 -0.989992 -0.924302 -0.924302 -0.989992 -0.99413 -0.989992 -0.99413 -0.801144 -0.924302 -0.801144 -0.924302 -0.801144 -0.801144 -0.628174 -0.628174 -0.416147 -0.628174 -0.416147 -0.628174 -0.178246 -0.416147 -0.178246 -0.416147 -0.178246 -0.178246 0.0707372 0.0707372 0.315322 0.0707372 0.315322 0.0707372 0.315322 0.315322 0.540302 0.540302 0.731689 0.540302 0.731689 0.540302 0.731689 0.731689 0.877583 0.877583 0.877583 0.877583 0.968912 0.968912 -0.820559 -0.820559 -0.653644 -0.653644 -0.820559 -0.653644 -0.820559 -0.653644 -0.820559 -0.820559 -0.653644 -0.653644 -0.820559 -0.820559 -0.653644 -0.653644 -0.820559 -0.653644 -0.820559 -0.653644 -0.820559 -0.653644 -0.820559 -0.653644 -0.178244 0.0707565 -0.178245 0.0707423 0.315389 0.315374 0.0707565 0.0707423 -0.801144 -0.924302 -0.801144 -0.924302 -0.989992 -0.989992 -0.924302 -0.924302 0.877607 0.877585 0.968917 0.968913 0.877607 0.968917 0.877675 0.968947 0.315389 0.540558 0.315374 0.54051 0.877859 0.877675 0.969041 0.968947 0.877859 0.969041 0.878166 0.969177 0.877585 0.877583 0.968913 0.968912 0.878166 0.969177 0.878555 0.969325 -0.936457 -0.820559 -0.936457 -0.820559 -0.936457 -0.936457 -0.99413 -0.99413 -0.936457 -0.936457 -0.820559 -0.820559 -0.989992 -0.924302 -0.989992 -0.924302 -0.416147 -0.416147 -0.628174 -0.628174 -0.178244 -0.178245 -0.416147 -0.416147 -0.416147 -0.628174 -0.416147 -0.628174 -0.801144 -0.801144 -0.628174 -0.628174 0.315324 0.0707376 0.315322 0.0707372 0.731692 0.731689 0.877585 0.877583 -0.936457 -0.936457 -0.820559 -0.820559 -0.936457 -0.820559 -0.936457 -0.820559 -0.989992 -0.989992 -0.99413 -0.99413 -0.801144 -0.628174 -0.801144 -0.628174 0.315324 0.315322 0.540305 0.540302 -0.178246 -0.416147 -0.178246 -0.416147 -0.936457 -0.820559 -0.936457 -0.820559 -0.936457 -0.99413 -0.936457 -0.99413 -0.936457 -0.936457 -0.820559 -0.820559 -0.801144 -0.801144 -0.924302 -0.924302 0.732199 0.732204 0.540558 0.54051 0.732199 0.878166 0.732204 0.878555 -0.989992 -0.99413 -0.989992 -0.99413 -0.178246 -0.178246 0.0707376 0.0707372 0.731692 0.540305 0.731689 0.540302 -0.936457 -0.936457 -0.99413 -0.99413 -0.989992 -0.99413 -0.989992 -0.99413 -0.178243 -0.178244 -0.416147 -0.416147 -0.801144 -0.801144 -0.628174 -0.628174 -0.801144 -0.924302 -0.801144 -0.924302 0.731718 0.877607 0.731805 0.877675 -0.989992 -0.924302 -0.989992 -0.924302 0.315332 0.0707407 0.315324 0.0707376 0.731718 0.731692 0.877607 0.877585 0.31538 0.540473 0.315389 0.540558 -0.416147 -0.416147 -0.628174 -0.628174 -0.416147 -0.628174 -0.416147 -0.628174 -0.936457 -0.99413 -0.936457 -0.99413 -0.936457 -0.99413 -0.936457 -0.99413 -0.989992 -0.989992 -0.99413 -0.99413 -0.801144 -0.628174 -0.801144 -0.628174 -0.801144 -0.801144 -0.924302 -0.924302 0.315332 0.315324 0.540329 0.540305 0.731718 0.540329 0.731692 0.540305 -0.178245 -0.416147 -0.178246 -0.416147 -0.178245 -0.178246 0.0707407 0.0707376 -0.936457 -0.936457 -0.99413 -0.99413 -0.989992 -0.99413 -0.989992 -0.99413 -0.416147 -0.628174 -0.416146 -0.628174 -0.416147 -0.416146 -0.628174 -0.628174 0.31538 0.315389 0.070757 0.0707565 -0.178243 0.070757 -0.178244 0.0707565 -0.989992 -0.989992 -0.924302 -0.924302 0.731981 0.877859 0.732199 0.878166 0.731981 0.731805 0.877859 0.877675 -0.989992 -0.989992 -0.99413 -0.99413 0.731981 0.732199 0.540473 0.540558 -0.989992 -0.989992 -0.924302 -0.924302 -0.801144 -0.924302 -0.801144 -0.924302 0.315332 0.315359 0.0707407 0.0707511 -0.178243 -0.416147 -0.178242 -0.416146 -0.178243 -0.178242 0.070757 0.0707511 0.731981 0.540473 0.731805 0.540393 0.31538 0.315359 0.540473 0.540393 -0.989992 -0.924302 -0.989992 -0.924302 -0.801144 -0.801144 -0.924302 -0.924302 -0.801144 -0.628174 -0.801144 -0.628174 0.731718 0.731805 0.540329 0.540393 -0.801144 -0.801144 -0.628174 -0.628174 0.315332 0.540329 0.315359 0.540393 -0.178245 -0.178242 -0.416147 -0.416146 -0.178245 0.0707407 -0.178242 0.0707511 0.31538 0.070757 0.315359 0.0707511 5.40178 3.64392 4.05807 1.80094 4.87597 3.65584 3.64392 2.07724 3.07219 3.11211 0.968912 1 3.07219 5.13997 3.11211 5.19122 7.08785 7.15367 5.13997 5.19122 8.85145 10.3939 8.93596 10.5024 8.85145 8.93596 7.08785 7.15367 11.7129 11.8522 10.3939 10.5024 12.8464 13.8782 13.0253 14.1079 12.8464 13.0253 11.7129 11.8522 13.8782 14.942 14.1079 15.237 16.2259 16.6046 14.942 15.237 20.5039 21.1283 17.9765 18.4627 16.2259 17.9765 16.6046 18.4627 24.1891 24.9909 20.5039 21.1283 36.9759 38.2978 29.494 30.5235 24.1891 29.