# vtk DataFile Version 3.0
#This file was generated by the deal.II library on 2025/5/11 at 16:00:04
ASCII
DATASET UNSTRUCTURED_GRID

POINTS 216 double
-0.231296 0.231296 -0.944989
-0.693889 0.19245 -0.693889
-0.19245 0.693889 -0.693889
-0.57735 0.57735 -0.57735
0.231296 0.231296 -0.944989
-0.231296 0.231296 -0.944989
0.19245 0.693889 -0.693889
-0.19245 0.693889 -0.693889
0.693889 0.19245 -0.693889
0.231296 0.231296 -0.944989
0.57735 0.57735 -0.57735
0.19245 0.693889 -0.693889
-0.231296 -0.231296 -0.944989
-0.693889 -0.19245 -0.693889
-0.231296 0.231296 -0.944989
-0.693889 0.19245 -0.693889
0.231296 -0.231296 -0.944989
-0.231296 -0.231296 -0.944989
0.231296 0.231296 -0.944989
-0.231296 0.231296 -0.944989
0.693889 -0.19245 -0.693889
0.231296 -0.231296 -0.944989
0.693889 0.19245 -0.693889
0.231296 0.231296 -0.944989
-0.19245 -0.693889 -0.693889
-0.57735 -0.57735 -0.57735
-0.231296 -0.231296 -0.944989
-0.693889 -0.19245 -0.693889
0.19245 -0.693889 -0.693889
-0.19245 -0.693889 -0.693889
0.231296 -0.231296 -0.944989
-0.231296 -0.231296 -0.944989
0.57735 -0.57735 -0.57735
0.19245 -0.693889 -0.693889
0.693889 -0.19245 -0.693889
0.231296 -0.231296 -0.944989
-0.19245 -0.693889 0.693889
-0.231296 -0.231296 0.944989
-0.57735 -0.57735 0.57735
-0.693889 -0.19245 0.693889
-0.231296 -0.231296 0.944989
-0.231296 0.231296 0.944989
-0.693889 -0.19245 0.693889
-0.693889 0.19245 0.693889
-0.231296 0.231296 0.944989
-0.19245 0.693889 0.693889
-0.693889 0.19245 0.693889
-0.57735 0.57735 0.57735
0.19245 -0.693889 0.693889
0.231296 -0.231296 0.944989
-0.19245 -0.693889 0.693889
-0.231296 -0.231296 0.944989
0.231296 -0.231296 0.944989
0.231296 0.231296 0.944989
-0.231296 -0.231296 0.944989
-0.231296 0.231296 0.944989
0.231296 0.231296 0.944989
0.19245 0.693889 0.693889
-0.231296 0.231296 0.944989
-0.19245 0.693889 0.693889
0.57735 -0.57735 0.57735
0.693889 -0.19245 0.693889
0.19245 -0.693889 0.693889
0.231296 -0.231296 0.944989
0.693889 -0.19245 0.693889
0.693889 0.19245 0.693889
0.231296 -0.231296 0.944989
0.231296 0.231296 0.944989
0.693889 0.19245 0.693889
0.57735 0.57735 0.57735
0.231296 0.231296 0.944989
0.19245 0.693889 0.693889
-0.231296 -0.944989 -0.231296
-0.693889 -0.693889 -0.19245
-0.19245 -0.693889 -0.693889
-0.57735 -0.57735 -0.57735
-0.231296 -0.944989 0.231296
-0.693889 -0.693889 0.19245
-0.231296 -0.944989 -0.231296
-0.693889 -0.693889 -0.19245
-0.19245 -0.693889 0.693889
-0.57735 -0.57735 0.57735
-0.231296 -0.944989 0.231296
-0.693889 -0.693889 0.19245
0.231296 -0.944989 -0.231296
-0.231296 -0.944989 -0.231296
0.19245 -0.693889 -0.693889
-0.19245 -0.693889 -0.693889
0.231296 -0.944989 0.231296
-0.231296 -0.944989 0.231296
0.231296 -0.944989 -0.231296
-0.231296 -0.944989 -0.231296
0.19245 -0.693889 0.693889
-0.19245 -0.693889 0.693889
0.231296 -0.944989 0.231296
-0.231296 -0.944989 0.231296
0.693889 -0.693889 -0.19245
0.231296 -0.944989 -0.231296
0.57735 -0.57735 -0.57735
0.19245 -0.693889 -0.693889
0.693889 -0.693889 0.19245
0.231296 -0.944989 0.231296
0.693889 -0.693889 -0.19245
0.231296 -0.944989 -0.231296
0.57735 -0.57735 0.57735
0.19245 -0.693889 0.693889
0.693889 -0.693889 0.19245
0.231296 -0.944989 0.231296
0.693889 0.693889 -0.19245
0.57735 0.57735 -0.57735
0.231296 0.944989 -0.231296
0.19245 0.693889 -0.693889
0.693889 0.693889 0.19245
0.693889 0.693889 -0.19245
0.231296 0.944989 0.231296
0.231296 0.944989 -0.231296
0.57735 0.57735 0.57735
0.693889 0.693889 0.19245
0.19245 0.693889 0.693889
0.231296 0.944989 0.231296
0.231296 0.944989 -0.231296
0.19245 0.693889 -0.693889
-0.231296 0.944989 -0.231296
-0.19245 0.693889 -0.693889
0.231296 0.944989 0.231296
0.231296 0.944989 -0.231296
-0.231296 0.944989 0.231296
-0.231296 0.944989 -0.231296
0.19245 0.693889 0.693889
0.231296 0.944989 0.231296
-0.19245 0.693889 0.693889
-0.231296 0.944989 0.231296
-0.231296 0.944989 -0.231296
-0.19245 0.693889 -0.693889
-0.693889 0.693889 -0.19245
-0.57735 0.57735 -0.57735
-0.231296 0.944989 0.231296
-0.231296 0.944989 -0.231296
-0.693889 0.693889 0.19245
-0.693889 0.693889 -0.19245
-0.19245 0.693889 0.693889
-0.231296 0.944989 0.231296
-0.57735 0.57735 0.57735
-0.693889 0.693889 0.19245
-0.944989 0.231296 -0.231296
-0.693889 0.693889 -0.19245
-0.693889 0.19245 -0.693889
-0.57735 0.57735 -0.57735
-0.944989 0.231296 0.231296
-0.693889 0.693889 0.19245
-0.944989 0.231296 -0.231296
-0.693889 0.693889 -0.19245
-0.693889 0.19245 0.693889
-0.57735 0.57735 0.57735
-0.944989 0.231296 0.231296
-0.693889 0.693889 0.19245
-0.944989 -0.231296 -0.231296
-0.944989 0.231296 -0.231296
-0.693889 -0.19245 -0.693889
-0.693889 0.19245 -0.693889
-0.944989 -0.231296 0.231296
-0.944989 0.231296 0.231296
-0.944989 -0.231296 -0.231296
-0.944989 0.231296 -0.231296
-0.693889 -0.19245 0.693889
-0.693889 0.19245 0.693889
-0.944989 -0.231296 0.231296
-0.944989 0.231296 0.231296
-0.693889 -0.693889 -0.19245
-0.944989 -0.231296 -0.231296
-0.57735 -0.57735 -0.57735
-0.693889 -0.19245 -0.693889
-0.693889 -0.693889 0.19245
-0.944989 -0.231296 0.231296
-0.693889 -0.693889 -0.19245
-0.944989 -0.231296 -0.231296
-0.57735 -0.57735 0.57735
-0.693889 -0.19245 0.693889
-0.693889 -0.693889 0.19245
-0.944989 -0.231296 0.231296
0.693889 -0.693889 -0.19245
0.57735 -0.57735 -0.57735
0.944989 -0.231296 -0.231296
0.693889 -0.19245 -0.693889
0.693889 -0.693889 0.19245
0.693889 -0.693889 -0.19245
0.944989 -0.231296 0.231296
0.944989 -0.231296 -0.231296
0.57735 -0.57735 0.57735
0.693889 -0.693889 0.19245
0.693889 -0.19245 0.693889
0.944989 -0.231296 0.231296
0.944989 -0.231296 -0.231296
0.693889 -0.19245 -0.693889
0.944989 0.231296 -0.231296
0.693889 0.19245 -0.693889
0.944989 -0.231296 0.231296
0.944989 -0.231296 -0.231296
0.944989 0.231296 0.231296
0.944989 0.231296 -0.231296
0.693889 -0.19245 0.693889
0.944989 -0.231296 0.231296
0.693889 0.19245 0.693889
0.944989 0.231296 0.231296
0.944989 0.231296 -0.231296
0.693889 0.19245 -0.693889
0.693889 0.693889 -0.19245
0.57735 0.57735 -0.57735
0.944989 0.231296 0.231296
0.944989 0.231296 -0.231296
0.693889 0.693889 0.19245
0.693889 0.693889 -0.19245
0.693889 0.19245 0.693889
0.944989 0.231296 0.231296
0.57735 0.57735 0.57735
0.693889 0.693889 0.19245

CELLS 54 270
4	0	1	3	2
4	4	5	7	6
4	8	9	11	10
4	12	13	15	14
4	16	17	19	18
4	20	21	23	22
4	24	25	27	26
4	28	29	31	30
4	32	33	35	34
4	36	37	39	38
4	40	41	43	42
4	44	45	47	46
4	48	49	51	50
4	52	53	55	54
4	56	57	59	58
4	60	61	63	62
4	64	65	67	66
4	68	69	71	70
4	72	73	75	74
4	76	77	79	78
4	80	81	83	82
4	84	85	87	86
4	88	89	91	90
4	92	93	95	94
4	96	97	99	98
4	100	101	103	102
4	104	105	107	106
4	108	109	111	110
4	112	113	115	114
4	116	117	119	118
4	120	121	123	122
4	124	125	127	126
4	128	129	131	130
4	132	133	135	134
4	136	137	139	138
4	140	141	143	142
4	144	145	147	146
4	148	149	151	150
4	152	153	155	154
4	156	157	159	158
4	160	161	163	162
4	164	165	167	166
4	168	169	171	170
4	172	173	175	174
4	176	177	179	178
4	180	181	183	182
4	184	185	187	186
4	188	189	191	190
4	192	193	195	194
4	196	197	199	198
4	200	201	203	202
4	204	205	207	206
4	208	209	211	210
4	212	213	215	214

CELL_TYPES 54
 9 9 9 9 9 9 9 9 9 9 9 9 9 9 9 9 9 9 9 9 9 9 9 9 9 9 9 9 9 9 9 9 9 9 9 9 9 9 9 9 9 9 9 9 9 9 9 9 9 9 9 9 9 9
POINT_DATA 216
SCALARS phi double 1
LOOKUP_TABLE default
0.192564 0.193224 0.193224 0.19319 0.192564 0.192564 0.193224 0.193224 0.193224 0.192564 0.19319 0.193224 0.192564 0.193224 0.192564 0.193224 0.192564 0.192564 0.192564 0.192564 0.193224 0.192564 0.193224 0.192564 0.193224 0.19319 0.192564 0.193224 0.193224 0.193224 0.192564 0.192564 0.19319 0.193224 0.193224 0.192564 0.193224 0.192564 0.19319 0.193224 0.192564 0.192564 0.193224 0.193224 0.192564 0.193224 0.193224 0.19319 0.193224 0.192564 0.193224 0.192564 0.192564 0.192564 0.192564 0.192564 0.192564 0.193224 0.192564 0.193224 0.19319 0.193224 0.193224 0.192564 0.193224 0.193224 0.192564 0.192564 0.193224 0.19319 0.192564 0.193224 0.192564 0.193224 0.193224 0.19319 0.192564 0.193224 0.192564 0.193224 0.193224 0.19319 0.192564 0.193224 0.192564 0.192564 0.193224 0.193224 0.192564 0.192564 0.192564 0.192564 0.193224 0.193224 0.192564 0.192564 0.193224 0.192564 0.19319 0.193224 0.193224 0.192564 0.193224 0.192564 0.19319 0.193224 0.193224 0.192564 0.193224 0.19319 0.192564 0.193224 0.193224 0.193224 0.192564 0.192564 0.19319 0.193224 0.193224 0.192564 0.192564 0.193224 0.192564 0.193224 0.192564 0.192564 0.192564 0.192564 0.193224 0.192564 0.193224 0.192564 0.192564 0.193224 0.193224 0.19319 0.192564 0.192564 0.193224 0.193224 0.193224 0.192564 0.19319 0.193224 0.192564 0.193224 0.193224 0.19319 0.192564 0.193224 0.192564 0.193224 0.193224 0.19319 0.192564 0.193224 0.192564 0.192564 0.193224 0.193224 0.192564 0.192564 0.192564 0.192564 0.193224 0.193224 0.192564 0.192564 0.193224 0.192564 0.19319 0.193224 0.193224 0.192564 0.193224 0.192564 0.19319 0.193224 0.193224 0.192564 0.193224 0.19319 0.192564 0.193224 0.193224 0.193224 0.192564 0.192564 0.19319 0.193224 0.193224 0.192564 0.192564 0.193224 0.192564 0.193224 0.192564 0.192564 0.192564 0.192564 0.193224 0.192564 0.193224 0.192564 0.192564 0.193224 0.193224 0.19319 0.192564 0.192564 0.193224 0.193224 0.193224 0.192564 0.19319 0.193224 
SCALARS phi_n double 1
LOOKUP_TABLE default
-0.511976 -0.512966 -0.512966 -0.512915 -0.511976 -0.511976 -0.512966 -0.512966 -0.512966 -0.511976 -0.512915 -0.512966 -0.511976 -0.512966 -0.511976 -0.512966 -0.511976 -0.511976 -0.511976 -0.511976 -0.512966 -0.511976 -0.512966 -0.511976 -0.512966 -0.512915 -0.511976 -0.512966 -0.512966 -0.512966 -0.511976 -0.511976 -0.512915 -0.512966 -0.512966 -0.511976 -0.512966 -0.511976 -0.512915 -0.512966 -0.511976 -0.511976 -0.512966 -0.512966 -0.511976 -0.512966 -0.512966 -0.512915 -0.512966 -0.511976 -0.512966 -0.511976 -0.511976 -0.511976 -0.511976 -0.511976 -0.511976 -0.512966 -0.511976 -0.512966 -0.512915 -0.512966 -0.512966 -0.511976 -0.512966 -0.512966 -0.511976 -0.511976 -0.512966 -0.512915 -0.511976 -0.512966 -0.511976 -0.512966 -0.512966 -0.512915 -0.511976 -0.512966 -0.511976 -0.512966 -0.512966 -0.512915 -0.511976 -0.512966 -0.511976 -0.511976 -0.512966 -0.512966 -0.511976 -0.511976 -0.511976 -0.511976 -0.512966 -0.512966 -0.511976 -0.511976 -0.512966 -0.511976 -0.512915 -0.512966 -0.512966 -0.511976 -0.512966 -0.511976 -0.512915 -0.512966 -0.512966 -0.511976 -0.512966 -0.512915 -0.511976 -0.512966 -0.512966 -0.512966 -0.511976 -0.511976 -0.512915 -0.512966 -0.512966 -0.511976 -0.511976 -0.512966 -0.511976 -0.512966 -0.511976 -0.511976 -0.511976 -0.511976 -0.512966 -0.511976 -0.512966 -0.511976 -0.511976 -0.512966 -0.512966 -0.512915 -0.511976 -0.511976 -0.512966 -0.512966 -0.512966 -0.511976 -0.512915 -0.512966 -0.511976 -0.512966 -0.512966 -0.512915 -0.511976 -0.512966 -0.511976 -0.512966 -0.512966 -0.512915 -0.511976 -0.512966 -0.511976 -0.511976 -0.512966 -0.512966 -0.511976 -0.511976 -0.511976 -0.511976 -0.512966 -0.512966 -0.511976 -0.511976 -0.512966 -0.511976 -0.512915 -0.512966 -0.512966 -0.511976 -0.512966 -0.511976 -0.512915 -0.512966 -0.512966 -0.511976 -0.512966 -0.512915 -0.511976 -0.512966 -0.512966 -0.512966 -0.511976 -0.511976 -0.512915 -0.512966 -0.512966 -0.511976 -0.511976 -0.512966 -0.511976 -0.512966 -0.511976 -0.511976 -0.511976 -0.511976 -0.512966 -0.511976 -0.512966 -0.511976 -0.511976 -0.512966 -0.512966 -0.512915 -0.511976 -0.511976 -0.512966 -0.512966 -0.512966 -0.511976 -0.512915 -0.512966 
SCALARS alpha double 1
LOOKUP_TABLE default
0.654403 0.646317 0.646317 0.666089 0.654403 0.654403 0.646317 0.646317 0.646317 0.654403 0.666089 0.646317 0.654403 0.646317 0.654403 0.646317 0.654403 0.654403 0.654403 0.654403 0.646317 0.654403 0.646317 0.654403 0.646317 0.666089 0.654403 0.646317 0.646317 0.646317 0.654403 0.654403 0.666089 0.646317 0.646317 0.654403 0.646317 0.654403 0.666089 0.646317 0.654403 0.654403 0.646317 0.646317 0.654403 0.646317 0.646317 0.666089 0.646317 0.654403 0.646317 0.654403 0.654403 0.654403 0.654403 0.654403 0.654403 0.646317 0.654403 0.646317 0.666089 0.646317 0.646317 0.654403 0.646317 0.646317 0.654403 0.654403 0.646317 0.666089 0.654403 0.646317 0.654403 0.646317 0.646317 0.666089 0.654403 0.646317 0.654403 0.646317 0.646317 0.666089 0.654403 0.646317 0.654403 0.654403 0.646317 0.646317 0.654403 0.654403 0.654403 0.654403 0.646317 0.646317 0.654403 0.654403 0.646317 0.654403 0.666089 0.646317 0.646317 0.654403 0.646317 0.654403 0.666089 0.646317 0.646317 0.654403 0.646317 0.666089 0.654403 0.646317 0.646317 0.646317 0.654403 0.654403 0.666089 0.646317 0.646317 0.654403 0.654403 0.646317 0.654403 0.646317 0.654403 0.654403 0.654403 0.654403 0.646317 0.654403 0.646317 0.654403 0.654403 0.646317 0.646317 0.666089 0.654403 0.654403 0.646317 0.646317 0.646317 0.654403 0.666089 0.646317 0.654403 0.646317 0.646317 0.666089 0.654403 0.646317 0.654403 0.646317 0.646317 0.666089 0.654403 0.646317 0.654403 0.654403 0.646317 0.646317 0.654403 0.654403 0.654403 0.654403 0.646317 0.646317 0.654403 0.654403 0.646317 0.654403 0.666089 0.646317 0.646317 0.654403 0.646317 0.654403 0.666089 0.646317 0.646317 0.654403 0.646317 0.666089 0.654403 0.646317 0.646317 0.646317 0.654403 0.654403 0.666089 0.646317 0.646317 0.654403 0.654403 0.646317 0.654403 0.646317 0.654403 0.654403 0.654403 0.654403 0.646317 0.654403 0.646317 0.654403 0.654403 0.646317 0.646317 0.666089 0.654403 0.654403 0.646317 0.646317 0.646317 0.654403 0.666089 0.646317 
SCALARS beta double 1
LOOKUP_TABLE default
1.5 1.5 1.5 1.5 1.5 1.5 1.5 1.5 1.5 1.5 1.5 1.5 1.5 1.5 1.5 1.5 1.5 1.5 1.5 1.5 1.5 1.5 1.5 1.5 1.5 1.5 1.5 1.5 1.5 1.5 1.5 1.5 1.5 1.5 1.5 1.5 1.5 1.5 1.5 1.5 1.5 1.5 1.5 1.5 1.5 1.5 1.5 1.5 1.5 1.5 1.5 1.5 1.5 1.5 1.5 1.5 1.5 1.5 1.5 1.5 1.5 1.5 1.5 1.5 1.5 1.5 1.5 1.5 1.5 1.5 1.5 1.5 1.5 1.5 1.5 1.5 1.5 1.5 1.5 1.5 1.5 1.5 1.5 1.5 1.5 1.5 1.5 1.5 1.5 1.5 1.5 1.5 1.5 1.5 1.5 1.5 1.5 1.5 1.5 1.5 1.5 1.5 1.5 1.5 1.5 1.5 1.5 1.5 1.5 1.5 1.5 1.5 1.5 1.5 1.5 1.5 1.5 1.5 1.5 1.5 1.5 1.5 1.5 1.5 1.5 1.5 1.5 1.5 1.5 1.5 1.5 1.5 1.5 1.5 1.5 1.5 1.5 1.5 1.5 1.5 1.5 1.5 1.5 1.5 1.5 1.5 1.5 1.5 1.5 1.5 1.5 1.5 1.5 1.5 1.5 1.5 1.5 1.5 1.5 1.5 1.5 1.5 1.5 1.5 1.5 1.5 1.5 1.5 1.5 1.5 1.5 1.5 1.5 1.5 1.5 1.5 1.5 1.5 1.5 1.5 1.5 1.5 1.5 1.5 1.5 1.5 1.5 1.5 1.5 1.5 1.5 1.5 1.5 1.5 1.5 1.5 1.5 1.5 1.5 1.5 1.5 1.5 1.5 1.5 1.5 1.5 1.5 1.5 1.5 1.5 1.5 1.5 1.5 1.5 1.5 1.5 
SCALARS g double 1
LOOKUP_TABLE default
-0.22313 -0.22313 -0.22313 -0.22313 -0.22313 -0.22313 -0.22313 -0.22313 -0.22313 -0.22313 -0.22313 -0.22313 -0.22313 -0.22313 -0.22313 -0.22313 -0.22313 -0.22313 -0.22313 -0.22313 -0.22313 -0.22313 -0.22313 -0.22313 -0.22313 -0.22313 -0.22313 -0.22313 -0.22313 -0.22313 -0.22313 -0.22313 -0.22313 -0.22313 -0.22313 -0.22313 -0.22313 -0.22313 -0.22313 -0.22313 -0.22313 -0.22313 -0.22313 -0.22313 -0.22313 -0.22313 -0.22313 -0.22313 -0.22313 -0.22313 -0.22313 -0.22313 -0.22313 -0.22313 -0.22313 -0.22313 -0.22313 -0.22313 -0.22313 -0.22313 -0.22313 -0.22313 -0.22313 -0.22313 -0.22313 -0.22313 -0.22313 -0.22313 -0.22313 -0.22313 -0.22313 -0.22313 -0.22313 -0.22313 -0.22313 -0.22313 -0.22313 -0.22313 -0.22313 -0.22313 -0.22313 -0.22313 -0.22313 -0.22313 -0.22313 -0.22313 -0.22313 -0.22313 -0.22313 -0.22313 -0.22313 -0.22313 -0.22313 -0.22313 -0.22313 -0.22313 -0.22313 -0.22313 -0.22313 -0.22313 -0.22313 -0.22313 -0.22313 -0.22313 -0.22313 -0.22313 -0.22313 -0.22313 -0.22313 -0.22313 -0.22313 -0.22313 -0.22313 -0.22313 -0.22313 -0.22313 -0.22313 -0.22313 -0.22313 -0.22313 -0.22313 -0.22313 -0.22313 -0.22313 -0.22313 -0.22313 -0.22313 -0.22313 -0.22313 -0.22313 -0.22313 -0.22313 -0.22313 -0.22313 -0.22313 -0.22313 -0.22313 -0.22313 -0.22313 -0.22313 -0.22313 -0.22313 -0.22313 -0.22313 -0.22313 -0.22313 -0.22313 -0.22313 -0.22313 -0.22313 -0.22313 -0.22313 -0.22313 -0.22313 -0.22313 -0.22313 -0.22313 -0.22313 -0.22313 -0.22313 -0.22313 -0.22313 -0.22313 -0.22313 -0.22313 -0.22313 -0.22313 -0.22313 -0.22313 -0.22313 -0.22313 -0.22313 -0.22313 -0.22313 -0.22313 -0.22313 -0.22313 -0.22313 -0.22313 -0.22313 -0.22313 -0.22313 -0.22313 -0.22313 -0.22313 -0.22313 -0.22313 -0.22313 -0.22313 -0.22313 -0.22313 -0.22313 -0.22313 -0.22313 -0.22313 -0.22313 -0.22313 -0.22313 -0.22313 -0.22313 -0.22313 -0.22313 -0.22313 -0.22313 -0.22313 -0.22313 -0.22313 -0.22313 -0.22313 -0.22313 -0.22313 -0.22313 -0.22313 -0.22313 -0.22313 -0.22313 
SCALARS boundary_type double 1
LOOKUP_TABLE default
2 2 2 2 2 2 2 2 2 2 2 2 2 2 2 2 2 2 2 2 2 2 2 2 2 2 2 2 2 2 2 2 2 2 2 2 2 2 2 2 2 2 2 2 2 2 2 2 2 2 2 2 2 2 2 2 2 2 2 2 2 2 2 2 2 2 2 2 2 2 2 2 2 2 2 2 2 2 2 2 2 2 2 2 2 2 2 2 2 2 2 2 2 2 2 2 2 2 2 2 2 2 2 2 2 2 2 2 2 2 2 2 2 2 2 2 2 2 2 2 2 2 2 2 2 2 2 2 2 2 2 2 2 2 2 2 2 2 2 2 2 2 2 2 2 2 2 2 2 2 2 2 2 2 2 2 2 2 2 2 2 2 2 2 2 2 2 2 2 2 2 2 2 2 2 2 2 2 2 2 2 2 2 2 2 2 2 2 2 2 2 2 2 2 2 2 2 2 2 2 2 2 2 2 2 2 2 2 2 2 2 2 2 2 2 2 
SCALARS phi_exact double 1
LOOKUP_TABLE default
0.22313 0.22313 0.22313 0.22313 0.22313 0.22313 0.22313 0.22313 0.22313 0.22313 0.22313 0.22313 0.22313 0.22313 0.22313 0.22313 0.22313 0.22313 0.22313 0.22313 0.22313 0.22313 0.22313 0.22313 0.22313 0.22313 0.22313 0.22313 0.22313 0.22313 0.22313 0.22313 0.22313 0.22313 0.22313 0.22313 0.22313 0.22313 0.22313 0.22313 0.22313 0.22313 0.22313 0.22313 0.22313 0.22313 0.22313 0.22313 0.22313 0.22313 0.22313 0.22313 0.22313 0.22313 0.22313 0.22313 0.22313 0.22313 0.22313 0.22313 0.22313 0.22313 0.22313 0.22313 0.22313 0.22313 0.22313 0.22313 0.22313 0.22313 0.22313 0.22313 0.22313 0.22313 0.22313 0.22313 0.22313 0.22313 0.22313 0.22313 0.22313 0.22313 0.22313 0.22313 0.22313 0.22313 0.22313 0.22313 0.22313 0.22313 0.22313 0.22313 0.22313 0.22313 0.22313 0.22313 0.22313 0.22313 0.22313 0.22313 0.22313 0.22313 0.22313 0.22313 0.22313 0.22313 0.22313 0.22313 0.22313 0.22313 0.22313 0.22313 0.22313 0.22313 0.22313 0.22313 0.22313 0.22313 0.22313 0.22313 0.22313 0.22313 0.22313 0.22313 0.22313 0.22313 0.22313 0.22313 0.22313 0.22313 0.22313 0.22313 0.22313 0.22313 0.22313 0.22313 0.22313 0.22313 0.22313 0.22313 0.22313 0.22313 0.22313 0.22313 0.22313 0.22313 0.22313 0.22313 0.22313 0.22313 0.22313 0.22313 0.22313 0.22313 0.22313 0.22313 0.22313 0.22313 0.22313 0.22313 0.22313 0.22313 0.22313 0.22313 0.22313 0.22313 0.22313 0.22313 0.22313 0.22313 0.22313 0.22313 0.22313 0.22313 0.22313 0.22313 0.22313 0.22313 0.22313 0.22313 0.22313 0.22313 0.22313 0.22313 0.22313 0.22313 0.22313 0.22313 0.22313 0.22313 0.22313 0.22313 0.22313 0.22313 0.22313 0.22313 0.22313 0.22313 0.22313 0.22313 0.22313 0.22313 0.22313 0.22313 0.22313 0.22313 0.22313 0.22313 0.22313 0.22313 0.22313 0.22313 0.22313 0.22313 0.22313 0.22313 
SCALARS phi_n_exact double 1
LOOKUP_TABLE default
-0.557825 -0.557825 -0.557825 -0.557825 -0.557825 -0.557825 -0.557825 -0.557825 -0.557825 -0.557825 -0.557825 -0.557825 -0.557825 -0.557825 -0.557825 -0.557825 -0.557825 -0.557825 -0.557825 -0.557825 -0.557825 -0.557825 -0.557825 -0.557825 -0.557825 -0.557825 -0.557825 -0.557825 -0.557825 -0.557825 -0.557825 -0.557825 -0.557825 -0.557825 -0.557825 -0.557825 -0.557825 -0.557825 -0.557825 -0.557825 -0.557825 -0.557825 -0.557825 -0.557825 -0.557825 -0.557825 -0.557825 -0.557825 -0.557825 -0.557825 -0.557825 -0.557825 -0.557825 -0.557825 -0.557825 -0.557825 -0.557825 -0.557825 -0.557825 -0.557825 -0.557825 -0.557825 -0.557825 -0.557825 -0.557825 -0.557825 -0.557825 -0.557825 -0.557825 -0.557825 -0.557825 -0.557825 -0.557825 -0.557825 -0.557825 -0.557825 -0.557825 -0.557825 -0.557825 -0.557825 -0.557825 -0.557825 -0.557825 -0.557825 -0.557825 -0.557825 -0.557825 -0.557825 -0.557825 -0.557825 -0.557825 -0.557825 -0.557825 -0.557825 -0.557825 -0.557825 -0.557825 -0.557825 -0.557825 -0.557825 -0.557825 -0.557825 -0.557825 -0.557825 -0.557825 -0.557825 -0.557825 -0.557825 -0.557825 -0.557825 -0.557825 -0.557825 -0.557825 -0.557825 -0.557825 -0.557825 -0.557825 -0.557825 -0.557825 -0.557825 -0.557825 -0.557825 -0.557825 -0.557825 -0.557825 -0.557825 -0.557825 -0.557825 -0.557825 -0.557825 -0.557825 -0.557825 -0.557825 -0.557825 -0.557825 -0.557825 -0.557825 -0.557825 -0.557825 -0.557825 -0.557825 -0.557825 -0.557825 -0.557825 -0.557825 -0.557825 -0.557825 -0.557825 -0.557825 -0.557825 -0.557825 -0.557825 -0.557825 -0.557825 -0.557825 -0.557825 -0.557825 -0.557825 -0.557825 -0.557825 -0.557825 -0.557825 -0.557825 -0.557825 -0.557825 -0.557825 -0.557825 -0.557825 -0.557825 -0.557825 -0.557825 -0.557825 -0.557825 -0.557825 -0.557825 -0.557825 -0.557825 -0.557825 -0.557825 -0.557825 -0.557825 -0.557825 -0.557825 -0.557825 -0.557825 -0.557825 -0.557825 -0.557825 -0.557825 -0.557825 -0.557825 -0.557825 -0.557825 -0.557825 -0.557825 -0.557825 -0.557825 -0.557825 -0.557825 -0.557825 -0.557825 -0.557825 -0.557825 -0.557825 -0.557825 -0.557825 -0.557825 -0.557825 -0.557825 -0.557825 -0.557825 -0.557825 -0.557825 -0.557825 -0.557825 -0.557825 
