# vtk DataFile Version 3.0
#This file was generated by the deal.II library on 2025/2/18 at 11:51:22
ASCII
DATASET UNSTRUCTURED_GRID

POINTS 24576 double
0.03125 0.96875 0
0 0.96875 0
0.03125 1 0
0 1 0
0.0625 0.96875 0
0.03125 0.96875 0
0.0625 1 0
0.03125 1 0
0.09375 0.96875 0
0.0625 0.96875 0
0.09375 1 0
0.0625 1 0
0.125 0.96875 0
0.09375 0.96875 0
0.125 1 0
0.09375 1 0
0.15625 0.96875 0
0.125 0.96875 0
0.15625 1 0
0.125 1 0
0.1875 0.96875 0
0.15625 0.96875 0
0.1875 1 0
0.15625 1 0
0.21875 0.96875 0
0.1875 0.96875 0
0.21875 1 0
0.1875 1 0
0.25 0.96875 0
0.21875 0.96875 0
0.25 1 0
0.21875 1 0
0.28125 0.96875 0
0.25 0.96875 0
0.28125 1 0
0.25 1 0
0.3125 0.96875 0
0.28125 0.96875 0
0.3125 1 0
0.28125 1 0
0.34375 0.96875 0
0.3125 0.96875 0
0.34375 1 0
0.3125 1 0
0.375 0.96875 0
0.34375 0.96875 0
0.375 1 0
0.34375 1 0
0.40625 0.96875 0
0.375 0.96875 0
0.40625 1 0
0.375 1 0
0.4375 0.96875 0
0.40625 0.96875 0
0.4375 1 0
0.40625 1 0
0.46875 0.96875 0
0.4375 0.96875 0
0.46875 1 0
0.4375 1 0
0.5 0.96875 0
0.46875 0.96875 0
0.5 1 0
0.46875 1 0
0.53125 0.96875 0
0.5 0.96875 0
0.53125 1 0
0.5 1 0
0.5625 0.96875 0
0.53125 0.96875 0
0.5625 1 0
0.53125 1 0
0.59375 0.96875 0
0.5625 0.96875 0
0.59375 1 0
0.5625 1 0
0.625 0.96875 0
0.59375 0.96875 0
0.625 1 0
0.59375 1 0
0.65625 0.96875 0
0.625 0.96875 0
0.65625 1 0
0.625 1 0
0.6875 0.96875 0
0.65625 0.96875 0
0.6875 1 0
0.65625 1 0
0.71875 0.96875 0
0.6875 0.96875 0
0.71875 1 0
0.6875 1 0
0.75 0.96875 0
0.71875 0.96875 0
0.75 1 0
0.71875 1 0
0.78125 0.96875 0
0.75 0.96875 0
0.78125 1 0
0.75 1 0
0.8125 0.96875 0
0.78125 0.96875 0
0.8125 1 0
0.78125 1 0
0.84375 0.96875 0
0.8125 0.96875 0
0.84375 1 0
0.8125 1 0
0.875 0.96875 0
0.84375 0.96875 0
0.875 1 0
0.84375 1 0
0.90625 0.96875 0
0.875 0.96875 0
0.90625 1 0
0.875 1 0
0.9375 0.96875 0
0.90625 0.96875 0
0.9375 1 0
0.90625 1 0
0.96875 0.96875 0
0.9375 0.96875 0
0.96875 1 0
0.9375 1 0
1 0.96875 0
0.96875 0.96875 0
1 1 0
0.96875 1 0
0.03125 0.9375 0
0 0.9375 0
0.03125 0.96875 0
0 0.96875 0
0.0625 0.9375 0
0.03125 0.9375 0
0.0625 0.96875 0
0.03125 0.96875 0
0.09375 0.9375 0
0.0625 0.9375 0
0.09375 0.96875 0
0.0625 0.96875 0
0.125 0.9375 0
0.09375 0.9375 0
0.125 0.96875 0
0.09375 0.96875 0
0.15625 0.9375 0
0.125 0.9375 0
0.15625 0.96875 0
0.125 0.96875 0
0.1875 0.9375 0
0.15625 0.9375 0
0.1875 0.96875 0
0.15625 0.96875 0
0.21875 0.9375 0
0.1875 0.9375 0
0.21875 0.96875 0
0.1875 0.96875 0
0.25 0.9375 0
0.21875 0.9375 0
0.25 0.96875 0
0.21875 0.96875 0
0.28125 0.9375 0
0.25 0.9375 0
0.28125 0.96875 0
0.25 0.96875 0
0.3125 0.9375 0
0.28125 0.9375 0
0.3125 0.96875 0
0.28125 0.96875 0
0.34375 0.9375 0
0.3125 0.9375 0
0.34375 0.96875 0
0.3125 0.96875 0
0.375 0.9375 0
0.34375 0.9375 0
0.375 0.96875 0
0.34375 0.96875 0
0.40625 0.9375 0
0.375 0.9375 0
0.40625 0.96875 0
0.375 0.96875 0
0.4375 0.9375 0
0.40625 0.9375 0
0.4375 0.96875 0
0.40625 0.96875 0
0.46875 0.9375 0
0.4375 0.9375 0
0.46875 0.96875 0
0.4375 0.96875 0
0.5 0.9375 0
0.46875 0.9375 0
0.5 0.96875 0
0.46875 0.96875 0
0.53125 0.9375 0
0.5 0.9375 0
0.53125 0.96875 0
0.5 0.96875 0
0.5625 0.9375 0
0.53125 0.9375 0
0.5625 0.96875 0
0.53125 0.96875 0
0.59375 0.9375 0
0.5625 0.9375 0
0.59375 0.96875 0
0.5625 0.96875 0
0.625 0.9375 0
0.59375 0.9375 0
0.625 0.96875 0
0.59375 0.96875 0
0.65625 0.9375 0
0.625 0.9375 0
0.65625 0.96875 0
0.625 0.96875 0
0.6875 0.9375 0
0.65625 0.9375 0
0.6875 0.96875 0
0.65625 0.96875 0
0.71875 0.9375 0
0.6875 0.9375 0
0.71875 0.96875 0
0.6875 0.96875 0
0.75 0.9375 0
0.71875 0.9375 0
0.75 0.96875 0
0.71875 0.96875 0
0.78125 0.9375 0
0.75 0.9375 0
0.78125 0.96875 0
0.75 0.96875 0
0.8125 0.9375 0
0.78125 0.9375 0
0.8125 0.96875 0
0.78125 0.96875 0
0.84375 0.9375 0
0.8125 0.9375 0
0.84375 0.96875 0
0.8125 0.96875 0
0.875 0.9375 0
0.84375 0.9375 0
0.875 0.96875 0
0.84375 0.96875 0
0.90625 0.9375 0
0.875 0.9375 0
0.90625 0.96875 0
0.875 0.96875 0
0.9375 0.9375 0
0.90625 0.9375 0
0.9375 0.96875 0
0.90625 0.96875 0
0.96875 0.9375 0
0.9375 0.9375 0
0.96875 0.96875 0
0.9375 0.96875 0
1 0.9375 0
0.96875 0.9375 0
1 0.96875 0
0.96875 0.96875 0
0.03125 0.90625 0
0 0.90625 0
0.03125 0.9375 0
0 0.9375 0
0.0625 0.90625 0
0.03125 0.90625 0
0.0625 0.9375 0
0.03125 0.9375 0
0.09375 0.90625 0
0.0625 0.90625 0
0.09375 0.9375 0
0.0625 0.9375 0
0.125 0.90625 0
0.09375 0.90625 0
0.125 0.9375 0
0.09375 0.9375 0
0.15625 0.90625 0
0.125 0.90625 0
0.15625 0.9375 0
0.125 0.9375 0
0.1875 0.90625 0
0.15625 0.90625 0
0.1875 0.9375 0
0.15625 0.9375 0
0.21875 0.90625 0
0.1875 0.90625 0
0.21875 0.9375 0
0.1875 0.9375 0
0.25 0.90625 0
0.21875 0.90625 0
0.25 0.9375 0
0.21875 0.9375 0
0.28125 0.90625 0
0.25 0.90625 0
0.28125 0.9375 0
0.25 0.9375 0
0.3125 0.90625 0
0.28125 0.90625 0
0.3125 0.9375 0
0.28125 0.9375 0
0.34375 0.90625 0
0.3125 0.90625 0
0.34375 0.9375 0
0.3125 0.9375 0
0.375 0.90625 0
0.34375 0.90625 0
0.375 0.9375 0
0.34375 0.9375 0
0.40625 0.90625 0
0.375 0.90625 0
0.40625 0.9375 0
0.375 0.9375 0
0.4375 0.90625 0
0.40625 0.90625 0
0.4375 0.9375 0
0.40625 0.9375 0
0.46875 0.90625 0
0.4375 0.90625 0
0.46875 0.9375 0
0.4375 0.9375 0
0.5 0.90625 0
0.46875 0.90625 0
0.5 0.9375 0
0.46875 0.9375 0
0.53125 0.90625 0
0.5 0.90625 0
0.53125 0.9375 0
0.5 0.9375 0
0.5625 0.90625 0
0.53125 0.90625 0
0.5625 0.9375 0
0.53125 0.9375 0
0.59375 0.90625 0
0.5625 0.90625 0
0.59375 0.9375 0
0.5625 0.9375 0
0.625 0.90625 0
0.59375 0.90625 0
0.625 0.9375 0
0.59375 0.9375 0
0.65625 0.90625 0
0.625 0.90625 0
0.65625 0.9375 0
0.625 0.9375 0
0.6875 0.90625 0
0.65625 0.90625 0
0.6875 0.9375 0
0.65625 0.9375 0
0.71875 0.90625 0
0.6875 0.90625 0
0.71875 0.9375 0
0.6875 0.9375 0
0.75 0.90625 0
0.71875 0.90625 0
0.75 0.9375 0
0.71875 0.9375 0
0.78125 0.90625 0
0.75 0.90625 0
0.78125 0.9375 0
0.75 0.9375 0
0.8125 0.90625 0
0.78125 0.90625 0
0.8125 0.9375 0
0.78125 0.9375 0
0.84375 0.90625 0
0.8125 0.90625 0
0.84375 0.9375 0
0.8125 0.9375 0
0.875 0.90625 0
0.84375 0.90625 0
0.875 0.9375 0
0.84375 0.9375 0
0.90625 0.90625 0
0.875 0.90625 0
0.90625 0.9375 0
0.875 0.9375 0
0.9375 0.90625 0
0.90625 0.90625 0
0.9375 0.9375 0
0.90625 0.9375 0
0.96875 0.90625 0
0.9375 0.90625 0
0.96875 0.9375 0
0.9375 0.9375 0
1 0.90625 0
0.96875 0.90625 0
1 0.9375 0
0.96875 0.9375 0
0.03125 0.875 0
0 0.875 0
0.03125 0.90625 0
0 0.90625 0
0.0625 0.875 0
0.03125 0.875 0
0.0625 0.90625 0
0.03125 0.90625 0
0.09375 0.875 0
0.0625 0.875 0
0.09375 0.90625 0
0.0625 0.90625 0
0.125 0.875 0
0.09375 0.875 0
0.125 0.90625 0
0.09375 0.90625 0
0.15625 0.875 0
0.125 0.875 0
0.15625 0.90625 0
0.125 0.90625 0
0.1875 0.875 0
0.15625 0.875 0
0.1875 0.90625 0
0.15625 0.90625 0
0.21875 0.875 0
0.1875 0.875 0
0.21875 0.90625 0
0.1875 0.90625 0
0.25 0.875 0
0.21875 0.875 0
0.25 0.90625 0
0.21875 0.90625 0
0.28125 0.875 0
0.25 0.875 0
0.28125 0.90625 0
0.25 0.90625 0
0.3125 0.875 0
0.28125 0.875 0
0.3125 0.90625 0
0.28125 0.90625 0
0.34375 0.875 0
0.3125 0.875 0
0.34375 0.90625 0
0.3125 0.90625 0
0.375 0.875 0
0.34375 0.875 0
0.375 0.90625 0
0.34375 0.90625 0
0.40625 0.875 0
0.375 0.875 0
0.40625 0.90625 0
0.375 0.90625 0
0.4375 0.875 0
0.40625 0.875 0
0.4375 0.90625 0
0.40625 0.90625 0
0.46875 0.875 0
0.4375 0.875 0
0.46875 0.90625 0
0.4375 0.90625 0
0.5 0.875 0
0.46875 0.875 0
0.5 0.90625 0
0.46875 0.90625 0
0.53125 0.875 0
0.5 0.875 0
0.53125 0.90625 0
0.5 0.90625 0
0.5625 0.875 0
0.53125 0.875 0
0.5625 0.90625 0
0.53125 0.90625 0
0.59375 0.875 0
0.5625 0.875 0
0.59375 0.90625 0
0.5625 0.90625 0
0.625 0.875 0
0.59375 0.875 0
0.625 0.90625 0
0.59375 0.90625 0
0.65625 0.875 0
0.625 0.875 0
0.65625 0.90625 0
0.625 0.90625 0
0.6875 0.875 0
0.65625 0.875 0
0.6875 0.90625 0
0.65625 0.90625 0
0.71875 0.875 0
0.6875 0.875 0
0.71875 0.90625 0
0.6875 0.90625 0
0.75 0.875 0
0.71875 0.875 0
0.75 0.90625 0
0.71875 0.90625 0
0.78125 0.875 0
0.75 0.875 0
0.78125 0.90625 0
0.75 0.90625 0
0.8125 0.875 0
0.78125 0.875 0
0.8125 0.90625 0
0.78125 0.90625 0
0.84375 0.875 0
0.8125 0.875 0
0.84375 0.90625 0
0.8125 0.90625 0
0.875 0.875 0
0.84375 0.875 0
0.875 0.90625 0
0.84375 0.90625 0
0.90625 0.875 0
0.875 0.875 0
0.90625 0.90625 0
0.875 0.90625 0
0.9375 0.875 0
0.90625 0.875 0
0.9375 0.90625 0
0.90625 0.90625 0
0.96875 0.875 0
0.9375 0.875 0
0.96875 0.90625 0
0.9375 0.90625 0
1 0.875 0
0.96875 0.875 0
1 0.90625 0
0.96875 0.90625 0
0.03125 0.84375 0
0 0.84375 0
0.03125 0.875 0
0 0.875 0
0.0625 0.84375 0
0.03125 0.84375 0
0.0625 0.875 0
0.03125 0.875 0
0.09375 0.84375 0
0.0625 0.84375 0
0.09375 0.875 0
0.0625 0.875 0
0.125 0.84375 0
0.09375 0.84375 0
0.125 0.875 0
0.09375 0.875 0
0.15625 0.84375 0
0.125 0.84375 0
0.15625 0.875 0
0.125 0.875 0
0.1875 0.84375 0
0.15625 0.84375 0
0.1875 0.875 0
0.15625 0.875 0
0.21875 0.84375 0
0.1875 0.84375 0
0.21875 0.875 0
0.1875 0.875 0
0.25 0.84375 0
0.21875 0.84375 0
0.25 0.875 0
0.21875 0.875 0
0.28125 0.84375 0
0.25 0.84375 0
0.28125 0.875 0
0.25 0.875 0
0.3125 0.84375 0
0.28125 0.84375 0
0.3125 0.875 0
0.28125 0.875 0
0.34375 0.84375 0
0.3125 0.84375 0
0.34375 0.875 0
0.3125 0.875 0
0.375 0.84375 0
0.34375 0.84375 0
0.375 0.875 0
0.34375 0.875 0
0.40625 0.84375 0
0.375 0.84375 0
0.40625 0.875 0
0.375 0.875 0
0.4375 0.84375 0
0.40625 0.84375 0
0.4375 0.875 0
0.40625 0.875 0
0.46875 0.84375 0
0.4375 0.84375 0
0.46875 0.875 0
0.4375 0.875 0
0.5 0.84375 0
0.46875 0.84375 0
0.5 0.875 0
0.46875 0.875 0
0.53125 0.84375 0
0.5 0.84375 0
0.53125 0.875 0
0.5 0.875 0
0.5625 0.84375 0
0.53125 0.84375 0
0.5625 0.875 0
0.53125 0.875 0
0.59375 0.84375 0
0.5625 0.84375 0
0.59375 0.875 0
0.5625 0.875 0
0.625 0.84375 0
0.59375 0.84375 0
0.625 0.875 0
0.59375 0.875 0
0.65625 0.84375 0
0.625 0.84375 0
0.65625 0.875 0
0.625 0.875 0
0.6875 0.84375 0
0.65625 0.84375 0
0.6875 0.875 0
0.65625 0.875 0
0.71875 0.84375 0
0.6875 0.84375 0
0.71875 0.875 0
0.6875 0.875 0
0.75 0.84375 0
0.71875 0.84375 0
0.75 0.875 0
0.71875 0.875 0
0.78125 0.84375 0
0.75 0.84375 0
0.78125 0.875 0
0.75 0.875 0
0.8125 0.84375 0
0.78125 0.84375 0
0.8125 0.875 0
0.78125 0.875 0
0.84375 0.84375 0
0.8125 0.84375 0
0.84375 0.875 0
0.8125 0.875 0
0.875 0.84375 0
0.84375 0.84375 0
0.875 0.875 0
[...]
POINT_DATA 24576
SCALARS phi double 1
LOOKUP_TABLE default
-3.77291 0.56633 -3.4989 0.540302 -2.01787 -3.77291 -1.6189 -3.4989 -1.30264 -2.01787 -1.0397 -1.6189 -0.946862 -1.30264 -0.7682 -1.0397 -0.735581 -0.946862 -0.607518 -0.7682 -0.593778 -0.735581 -0.49788 -0.607518 -0.49002 -0.593778 -0.41575 -0.49788 -0.409205 -0.49002 -0.350156 -0.41575 -0.343296 -0.409205 -0.295349 -0.350156 -0.287671 -0.343296 -0.248045 -0.295349 -0.239496 -0.287671 -0.206239 -0.248045 -0.196945 -0.239496 -0.168643 -0.206239 -0.158792 -0.196945 -0.134385 -0.168643 -0.124178 -0.158792 -0.102856 -0.134385 -0.0924815 -0.124178 -0.0736088 -0.102856 -0.0632382 -0.0924815 -0.0463081 -0.0736088 -0.0360887 -0.0632382 -0.0206885 -0.0463081 -0.0107453 -0.0360887 0.00346653 -0.0206885 0.0130313 -0.0107453 0.0263418 0.00346653 0.0354478 0.0130313 0.0481026 0.0263418 0.0566917 0.0354478 0.0689044 0.0481026 0.0769419 0.0566917 0.0889016 0.0689044 0.0963795 0.0769419 0.108257 0.0889016 0.115201 0.0963795 0.127156 0.108257 0.133635 0.115201 0.145821 0.127156 0.151969 0.133635 0.164541 0.145821 0.170601 0.151969 0.183727 0.164541 0.190133 0.170601 0.20402 0.183727 0.211599 0.190133 0.226545 0.20402 0.237131 0.211599 0.253675 0.226545 0.274146 0.237131 0.29285 0.253675 0.328548 0.274146 0.352701 0.29285 -2.73439 0.591805 -3.77291 0.56633 -1.76923 -2.73439 -2.01787 -3.77291 -1.27443 -1.76923 -1.30264 -2.01787 -0.969317 -1.27443 -0.946862 -1.30264 -0.766546 -0.969317 -0.735581 -0.946862 -0.622453 -0.766546 -0.593778 -0.735581 -0.513981 -0.622453 -0.49002 -0.593778 -0.428386 -0.513981 -0.409205 -0.49002 -0.358258 -0.428386 -0.343296 -0.409205 -0.299075 -0.358258 -0.287671 -0.343296 -0.247954 -0.299075 -0.239496 -0.287671 -0.202982 -0.247954 -0.196945 -0.239496 -0.162845 -0.202982 -0.158792 -0.196945 -0.12661 -0.162845 -0.124178 -0.158792 -0.093597 -0.12661 -0.0924815 -0.124178 -0.0632914 -0.093597 -0.0632382 -0.0924815 -0.0352953 -0.0632914 -0.0360887 -0.0632382 -0.00929004 -0.0352953 -0.0107453 -0.0360887 0.0149878 -0.00929004 0.0130313 -0.0107453 0.0377641 0.0149878 0.0354478 0.0130313 0.0592406 0.0377641 0.0566917 0.0354478 0.0796066 0.0592406 0.0769419 0.0566917 0.0990495 0.0796066 0.0963795 0.0769419 0.117767 0.0990495 0.115201 0.0963795 0.135985 0.117767 0.133635 0.115201 0.153977 0.135985 0.151969 0.133635 0.172113 0.153977 0.170601 0.151969 0.190941 0.172113 0.190133 0.170601 0.211392 0.190941 0.211599 0.190133 0.235476 0.211392 0.237131 0.211599 0.271205 0.235476 0.274146 0.237131 0.325649 0.271205 0.328548 0.274146 -2.40487 0.616702 -2.73439 0.591805 -1.54408 -2.40487 -1.76923 -2.73439 -1.17194 -1.54408 -1.27443 -1.76923 -0.929234 -1.17194 -0.969317 -1.27443 -0.75311 -0.929234 -0.766546 -0.969317 -0.619439 -0.75311 -0.622453 -0.766546 -0.51438 -0.619439 -0.513981 -0.622453 -0.429206 -0.51438 -0.428386 -0.513981 -0.358264 -0.429206 -0.358258 -0.428386 -0.297815 -0.358264 -0.299075 -0.358258 -0.245323 -0.297815 -0.247954 -0.299075 -0.199032 -0.245323 -0.202982 -0.247954 -0.157692 -0.199032 -0.162845 -0.202982 -0.120393 -0.157692 -0.12661 -0.162845 -0.0864557 -0.120393 -0.093597 -0.12661 -0.0553597 -0.0864557 -0.0632914 -0.093597 -0.0266975 -0.0553597 -0.0352953 -0.0632914 -0.000140389 -0.0266975 -0.00929004 -0.0352953 0.0245842 -0.000140389 0.0149878 -0.00929004 0.04771 0.0245842 0.0377641 0.0149878 0.0694449 0.04771 0.0592406 0.0377641 0.0899815 0.0694449 0.0796066 0.0592406 0.109508 0.0899815 0.0990495 0.0796066 0.128221 0.109508 0.117767 0.0990495 0.146335 0.128221 0.135985 0.117767 0.164112 0.146335 0.153977 0.135985 0.181893 0.164112 0.172113 0.153977 0.200188 0.181893 0.190941 0.172113 0.219878 0.200188 0.211392 0.190941 0.242974 0.219878 0.235476 0.211392 0.277716 0.242974 0.271205 0.235476 0.331442 0.277716 0.325649 0.271205 -2.2242 0.640997 -2.40487 0.616702 -1.38932 -2.2242 -1.54408 -2.40487 -1.06941 -1.38932 -1.17194 -1.54408 -0.868417 -1.06941 -0.929234 -1.17194 -0.717798 -0.868417 -0.75311 -0.929234 -0.598115 -0.717798 -0.619439 -0.75311 -0.500271 -0.598115 -0.51438 -0.619439 -0.418578 -0.500271 -0.429206 -0.51438 -0.349105 -0.418578 -0.358264 -0.429206 -0.289054 -0.349105 -0.297815 -0.358264 -0.236408 -0.289054 -0.245323 -0.297815 -0.189691 -0.236408 -0.199032 -0.245323 -0.147809 -0.189691 -0.157692 -0.199032 -0.10994 -0.147809 -0.120393 -0.157692 -0.0754491 -0.10994 -0.0864557 -0.120393 -0.0438433 -0.0754491 -0.0553597 -0.0864557 -0.0147273 -0.0438433 -0.0266975 -0.0553597 0.0122214 -0.0147273 -0.000140389 -0.0266975 0.0372729 0.0122214 0.0245842 -0.000140389 0.0606598 0.0372729 0.04771 0.0245842 0.0825893 0.0606598 0.0694449 0.04771 0.103253 0.0825893 0.0899815 0.0694449 0.122837 0.103253 0.109508 0.0899815 0.14153 0.122837 0.128221 0.109508 0.159541 0.14153 0.146335 0.128221 0.177118 0.159541 0.164112 0.146335 0.194587 0.177118 0.181893 0.164112 0.212438 0.194587 0.200188 0.181893 0.231548 0.212438 0.219878 0.200188 0.253975 0.231548 0.242974 0.219878 0.288133 0.253975 0.277716 0.242974 0.341503 0.288133 0.331442 0.277716 -2.11239 0.664666 -2.2242 0.640997 -1.27822 -2.11239 -1.38932 -2.2242 -0.981524 -1.27822 -1.06941 -1.38932 -0.805209 -0.981524 -0.868417 -1.06941 -0.673693 -0.805209 -0.717798 -0.868417 -0.566871 -0.673693 -0.598115 -0.717798 -0.477078 -0.566871 -0.500271 -0.598115 -0.400195 -0.477078 -0.418578 -0.500271 -0.333476 -0.400195 -0.349105 -0.418578 -0.27491 -0.333476 -0.289054 -0.349105 -0.222979 -0.27491 -0.236408 -0.289054 -0.176518 -0.222979 -0.189691 -0.236408 -0.134627 -0.176518 -0.147809 -0.189691 -0.0965989 -0.134627 -0.10994 -0.147809 -0.0618767 -0.0965989 -0.0754491 -0.10994 -0.0300119 -0.0618767 -0.0438433 -0.0754491 -0.000638695 -0.0300119 -0.0147273 -0.0438433 0.0265472 -0.000638695 0.0122214 -0.0147273 0.0518043 0.0265472 0.0372729 0.0122214 0.0753573 0.0518043 0.0606598 0.0372729 0.0974076 0.0753573 0.0825893 0.0606598 0.118142 0.0974076 0.103253 0.0825893 0.137741 0.118142 0.122837 0.103253 0.156389 0.137741 0.14153 0.122837 0.174286 0.156389 0.159541 0.14153 0.191673 0.174286 0.177118 0.159541 0.208869 0.191673 0.194587 0.177118 0.226361 0.208869 0.212438 0.194587 0.245044 0.226361 0.231548 0.212438 0.267028 0.245044 0.253975 0.231548 0.300858 0.267028 0.288133 0.253975 0.354084 0.300858 0.341503 0.288133 -2.03368 0.687686 -2.11239 0.664666 -1.19316 -2.03368 -1.27822 -2.11239 -0.907512 -1.19316 -0.981524 -1.27822 -0.745801 -0.907512 -0.805209 -0.981524 -0.627561 -0.745801 -0.673693 -0.805209 -0.531069 -0.627561 -0.566871 -0.673693 -0.448656 -0.531069 -0.477078 -0.566871 -0.376779 -0.448656 -0.400195 -0.477078 -0.313333 -0.376779 -0.333476 -0.400195 -0.25684 -0.313333 -0.27491 -0.333476 -0.206175 -0.25684 -0.222979 -0.27491 -0.160447 -0.206175 -0.176518 -0.222979 -0.118943 -0.160447 -0.134627 -0.176518 -0.0810821 -0.118943 -0.0965989 -0.134627 -0.0463924 -0.0810821 -0.0618767 -0.0965989 -0.0144823 -0.0463924 -0.0300119 -0.0618767 0.0149757 -0.0144823 -0.000638695 -0.0300119 0.0422598 0.0149757 0.0265472 -0.000638695 0.0676103 0.0422598 0.0518043 0.0265472 0.0912395 0.0676103 0.0753573 0.0518043 0.113339 0.0912395 0.0974076 0.0753573 0.134089 0.113339 0.118142 0.0974076 0.153663 0.134089 0.137741 0.118142 0.172239 0.153663 0.156389 0.137741 0.190014 0.172239 0.174286 0.156389 0.207223 0.190014 0.191673 0.174286 0.224184 0.207223 0.208869 0.191673 0.241392 0.224184 0.226361 0.208869 0.259764 0.241392 0.245044 0.226361 0.281456 0.259764 0.267028 0.245044 0.315111 0.281456 0.300858 0.267028 0.368315 0.315111 0.354084 0.300858 -1.97489 0.710034 -2.03368 0.687686 -1.1247 -1.97489 -1.19316 -2.03368 -0.8444 -1.1247 -0.907512 -1.19316 -0.69161 -0.8444 -0.745801 -0.907512 -0.582474 -0.69161 -0.627561 -0.745801 -0.493844 -0.582474 -0.531069 -0.627561 -0.417625 -0.493844 -0.448656 -0.531069 -0.350353 -0.417625 -0.376779 -0.448656 -0.290201 -0.350353 -0.313333 -0.376779 -0.235997 -0.290201 -0.25684 -0.313333 -0.186883 -0.235997 -0.206175 -0.25684 -0.14218 -0.186883 -0.160447 -0.206175 -0.101333 -0.14218 -0.118943 -0.160447 -0.0638776 -0.101333 -0.0810821 -0.118943 -0.0294245 -0.0638776 -0.0463924 -0.0810821 0.00235884 -0.0294245 -0.0144823 -0.0463924 0.0317579 0.00235884 0.0149757 -0.0144823 0.0590209 0.0317579 0.0422598 0.0149757 0.0843668 0.0590209 0.0676103 0.0422598 0.107992 0.0843668 0.0912395 0.0676103 0.130077 0.107992 0.113339 0.0912395 0.150792 0.130077 0.134089 0.113339 0.170305 0.150792 0.153663 0.134089 0.188788 0.170305 0.172239 0.153663 0.206435 0.188788 0.190014 0.172239 0.223478 0.206435 0.207223 0.190014 0.24024 0.223478 0.224184 0.207223 0.257224 0.24024 0.241392 0.224184 0.275368 0.257224 0.259764 0.241392 0.296866 0.275368 0.281456 0.259764 0.330439 0.296866 0.315111 0.281456 0.383696 0.330439 0.368315 0.315111 -1.92917 0.731689 -1.97489 0.710034 -1.06765 -1.92917 -1.1247 -1.97489 -0.789693 -1.06765 -0.8444 -1.1247 -0.64251 -0.789693 -0.69161 -0.8444 -0.539661 -0.64251 -0.582474 -0.69161 -0.456901 -0.539661 -0.493844 -0.582474 -0.38566 -0.456901 -0.417625 -0.493844 -0.322361 -0.38566 -0.350353 -0.417625 -0.265249 -0.322361 -0.290201 -0.350353 -0.213303 -0.265249 -0.235997 -0.290201 -0.165828 -0.213303 -0.186883 -0.235997 -0.122293 -0.165828 -0.14218 -0.186883 -0.0822627 -0.122293 -0.101333 -0.14218 -0.0453708 -0.0822627 -0.0638776 -0.101333 -0.0113 -0.0453708 -0.0294245 -0.0638776 0.0202266 -0.0113 0.00235884 -0.0294245 0.0494534 0.0202266 0.0317579 0.00235884 0.0765982 0.0494534 0.0590209 0.0317579 0.101857 0.0765982 0.0843668 0.0590209 0.12541 0.101857 0.107992 0.0843668 0.147425 0.12541 0.130077 0.107992 0.168063 0.147425 0.150792 0.130077 0.187484 0.168063 0.170305 0.150792 0.205857 0.187484 0.188788 0.170305 0.223371 0.205857 0.206435 0.188788 0.24026 0.223371 0.223478 0.206435 0.256851 0.24026 0.24024 0.223478 0.273656 0.256851 0.257224 0.24024 0.291632 0.273656 0.275368 0.257224 0.312999 0.291632 0.296866 0.275368 0.34655 0.312999 0.330439 0.296866 0.399907 0.34655 0.383696 0.330439 -1.8927 0.752629 -1.92917 0.731689 -1.01897 -1.8927 -1.06765 -1.92917 -0.741605 -1.01897 -0.789693 -1.06765 -0.597985 -0.741605 -0.64251 -0.789693 -0.499525 -0.597985 -0.539661 -0.64251 -0.42112 -0.499525 -0.456901 -0.539661 -0.353791 -0.42112 -0.38566 -0.456901 -0.293792 -0.353791 -0.322361 -0.38566 -0.239345 -0.293792 -0.265249 -0.322361 -0.189486 -0.239345 -0.213303 -0.265249 -0.143605 -0.189486 -0.165828 -0.213303 -0.101268 -0.143605 -0.122293 -0.165828 -0.0621254 -0.101268 -0.0822627 -0.122293 -0.025885 -0.0621254 -0.0453708 -0.0822627 0.00771036 -0.025885 -0.0113 -0.0453708 0.03889 0.00771036 0.0202266 -0.0113 0.067861 0.03889 0.0494534 0.0202266 0.0948128 0.067861 0.0765982 0.0494534 0.11992 0.0948128 0.101857 0.0765982 0.143345 0.11992 0.12541 0.101857 0.165245 0.143345 0.147425 0.12541 0.18577 0.165245 0.168063 0.147425 0.205074 0.18577 0.187484 0.168063 0.223322 0.205074 0.205857 0.187484 0.2407 0.223322 0.223371 0.205857 0.257445 0.2407 0.24026 0.223371 0.273886 0.257445 0.256851 0.24026 0.290546 0.273886 0.273656 0.256851 0.308394 0.290546 0.291632 0.273656 0.329675 0.308394 0.312999 0.291632 0.36324 0.329675 0.34655 0.312999 0.416729 0.36324 0.399907 0.34655 -1.86311 0.772835 -1.8927 0.752629 -0.976763 -1.86311 -1.01897 -1.8927 -0.698885 -0.976763 -0.741605 -1.01897 -0.5575 -0.698885 -0.597985 -0.741605 -0.462113 -0.5575 -0.499525 -0.597985 -0.38693 -0.462113 -0.42112 -0.499525 -0.322632 -0.38693 -0.353791 -0.42112 -0.265306 -0.322632 -0.293792 -0.353791 -0.213116 -0.265306 -0.239345 -0.293792 -0.165099 -0.213116 -0.189486 -0.239345 -0.120689 -0.165099 -0.143605 -0.189486 -0.0795027 -0.120689 -0.101268 -0.143605 -0.0412517 -0.0795027 -0.0621254 -0.101268 -0.0056957 -0.0412517 -0.025885 -0.0621254 0.0273757 -0.0056957 0.00771036 -0.025885 0.0581531 0.0273757 0.03889 0.00771036 0.0868122 0.0581531 0.067861 0.03889 0.113517 0.0868122 0.0948128 0.067861 0.138423 0.113517 0.11992 0.0948128 0.161679 0.138423 0.143345 0.11992 0.183427 0.161679 0.165245 0.143345 0.20381 0.183427 0.18577 0.165245 0.222978 0.20381 0.205074 0.18577 0.241089 0.222978 0.223322 0.205074 0.25833 0.241089 0.2407 0.223322 0.274938 0.25833 0.257445 0.2407 0.291245 0.274938 0.273886 0.257445 0.307783 0.291245 0.290546 0.273886 0.325532 0.307783 0.308394 0.290546 0.346756 0.325532 0.329675 0.308394 0.380361 0.346756 0.36324 0.329675 0.434002 0.380361 0.416729 0.36324 -1.83886 0.792286 -1.86311 0.772835 -0.939756 -1.83886 -0.976763 -1.86311 -0.660653 -0.939756 -0.698885 -0.976763 -0.52059 -0.660653 -0.5575 -0.698885 -0.427338 -0.52059 -0.462113 -0.5575 -0.354521 -0.427338 -0.38693 -0.462113 -0.29254 -0.354521 -0.322632 -0.38693 -0.237336 -0.29254 -0.265306 -0.322632 -0.187003 -0.237336 -0.213116 -0.265306 -0.140559 -0.187003 -0.165099 -0.213116 -0.0974497 -0.140559 -0.120689 -0.165099 -0.0573203 -0.0974497 -0.0795027 -0.120689 -0.0199171 -0.0573203 -0.0412517 -0.0795027 0.0149636 -0.0199171 -0.0056957 -0.0412517 0.0474982 0.0149636 0.0273757 -0.0056957 0.0778475 0.0474982 0.0581531 0.0273757 0.106162 0.0778475 0.0868122 0.0581531 0.132586 0.106162 0.113517 0.0868122 0.157257 0.132586 0.138423 0.113517 0.180311 0.157257 0.161679 0.138423 0.20188 0.180311 0.183427 0.161679 0.222101 0.20188 0.20381 0.183427 0.241116 0.222101 0.222978 0.20381 0.259082 0.241116 0.241089 0.222978 0.276184 0.259082 0.25833 0.241089 0.29266 0.276184 0.274938 0.25833 0.308846 0.29266 0.291245 0.274938 0.325278 0.308846 0.307783 0.291245 0.342947 0.325278 0.325532 0.307783 0.364135 0.342947 0.346756 0.325532 0.397795 0.364135 0.380361 0.346756 0.451604 0.397795 0.434002 0.380361 -1.81889 0.810963 -1.83886 0.792286 -0.907086 -1.81889 -0.939756 -1.83886 -0.626272 -0.907086 -0.660653 -0.939756 -0.48688 -0.626272 -0.52059 -0.660653 -0.395068 -0.48688 -0.427338 -0.52059 -0.323955 -0.395068 -0.354521 -0.427338 -0.263712 -0.323955 -0.29254 -0.354521 -0.210156 -0.263712 -0.237336 -0.29254 -0.161312 -0.210156 -0.187003 -0.237336 -0.116171 -0.161312 -0.140559 -0.187003 -0.0741737 -0.116171 -0.0974497 -0.140559 -0.0349769 -0.0741737 -0.0573203 -0.0974497 0.00165342 -0.0349769 -0.0199171 -0.0573203 0.0358979 0.00165342 0.0149636 -0.0199171 0.0679098 0.0358979 0.0474982 0.0149636 0.0978286 0.0679098 0.0778475 0.0474982 0.125786 0.0978286 0.106162 0.0778475 0.15191 0.125786 0.132586 0.106162 0.176325 0.15191 0.157257 0.132586 0.199155 0.176325 0.180311 0.157257 0.220527 0.199155 0.20188 0.180311 0.24057 0.220527 0.222101 0.20188 0.259421 0.24057 0.241116 0.222101 0.277235 0.259421 0.259082 0.241116 0.294196 0.277235 0.276184 0.259082 0.310544 0.294196 0.29266 0.276184 0.326616 0.310544 0.308846 0.29266 0.342956 0.326616 0.325278 0.308846 0.36056 0.342956 0.342947 0.325278 0.381724 0.36056 0.364135 0.342947 0.415452 0.381724 0.397795 0.364135 0.469437 0.415452 0.451604 0.397795 -1.80243 0.828848 -1.81889 0.810963 -0.878135 -1.80243 -0.907086 -1.81889 -0.595278 -0.878135 -0.626272 -0.907086 -0.45607 -0.595278 -0.48688 -0.626272 -0.365166 -0.45607 -0.395068 -0.48688 -0.295235 -0.365166 -0.323955 -0.395068 -0.236255 -0.295235 -0.263712 -0.323955 -0.183938 -0.236255 -0.210156 -0.263712 -0.13625 -0.183938 -0.161312 -0.210156 -0.0921528 -0.13625 -0.116171 -0.161312 -0.0510733 -0.0921528 -0.0741737 -0.116171 -0.0126708 -0.0510733 -0.0349769 -0.0741737 0.0232804 -0.0126708 0.00165342 -0.0349769 0.0569479 0.0232804 0.0358979 0.00165342 0.0884707 0.0569479 0.0679098 0.0358979 0.117974 0.0884707 0.0978286 0.0679098 0.145576 0.117974 0.125786 0.0978286 0.171394 0.145576 0.15191 0.125786 0.195542 0.171394 0.176325 0.15191 0.218137 0.195542 0.199155 0.176325 0.239299 0.218137 0.220527 0.199155 0.259152 0.239299 0.24057 0.220527 0.277831 0.259152 0.259421 0.24057 0.295489 0.277831 0.277235 0.259421 0.312309 0.295489 0.294196 0.277235 0.328531 0.312309 0.310544 0.294196 0.344496 0.328531 0.326616 0.310544 0.360751 0.344496 0.342956 0.326616 0.3783 0.360751 0.36056 0.342956 0.399451 0.3783 0.381724 0.36056 0.433253 0.399451 0.415452 0.381724 0.487422 0.433253 0.469437 0.415452 -1.78894 0.845924 -1.80243 0.828848 -0.852461 -1.78894 -0.878135 -1.80243 -0.567325 -0.852461 -0.595278 -0.878135 -0.427925 -0.567325 -0.45607 -0.595278 -0.337505 -0.427925 -0.365166 -0.45607 -0.268331 -0.337505 -0.295235 -0.365166 -0.210215 -0.268331 -0.236255 -0.295235 -0.158783 -0.210215 -0.183938 -0.236255 -0.111953 -0.158783 -0.13625 -0.183938 -0.0686546 -0.111953 -0.0921528 -0.13625 -0.0283026 -0.0686546 -0.0510733 -0.0921528 0.00944931 -0.0283026 -0.0126708 -0.0510733 0.0448252 0.00944931 0.0232804 -0.0126708 0.0779874 0.0448252 0.0569479 0.0232804 0.109067 0.0779874 0.0884707 0.0569479 0.138182 0.109067 0.117974 0.0884707 0.165442 0.138182 0.145576 0.117974 0.190958 0.165442 0.171394 0.145576 0.214837 0.190958 0.195542 0.171394 0.237191 0.214837 0.218137 0.195542 0.258136 0.237191 0.239299 0.218137 0.277792 0.258136 0.259152 0.239299 0.296293 0.277792 0.277831 0.259152 0.313791 0.296293 0.295489 0.277831 0.330469 0.313791 0.312309 0.295489 0.346568 0.330469 0.328531 0.312309 0.36243 0.346568 0.344496 0.328531 0.378607 0.36243 0.360751 0.344496 0.396108 0.378607 0.3783 0.360751 0.417254 0.396108 0.399451 0.3783 0.451134 0.417254 0.433253 0.399451 0.50549 0.451134 0.487422 0.433253 -1.77802 0.862174 -1.78894 0.845924 -0.829738 -1.77802 -0.852461 -1.78894 -0.542158 -0.829738 -0.567325 -0.852461 -0.402262 -0.542158 -0.427925 -0.567325 -0.311975 -0.402262 -0.337505 -0.427925 -0.243197 -0.311975 -0.268331 -0.337505 -0.185602 -0.243197 -0.210215 -0.268331 -0.134745 -0.185602 -0.158783 -0.210215 -0.0885004 -0.134745 -0.111953 -0.158783 -0.0457751 -0.0885004 -0.0686546 -0.111953 -0.00596727 -0.0457751 -0.0283026 -0.0686546 0.0312772 -0.00596727 0.00944931 -0.0283026 0.0661857 0.0312772 0.0448252 0.00944931 0.0989204 0.0661857 0.0779874 0.0448252 0.129611 0.0989204 0.109067 0.0779874 0.158372 0.129611 0.138182 0.109067 0.185311 0.158372 0.165442 0.138182 0.210534 0.185311 0.190958 0.165442 0.234147 0.210534 0.214837 0.190958 0.256259 0.234147 0.237191 0.214837 0.276983 0.256259 0.258136 0.237191 0.296439 0.276983 0.277792 0.258136 0.314759 0.296439 0.296293 0.277792 0.332095 0.314759 0.313791 0.296293 0.34863 0.332095 0.330469 0.313791 0.364607 0.34863 0.346568 0.330469 0.380371 0.364607 0.36243 0.346568 0.396474 0.380371 0.378607 0.36243 0.413933 0.396474 0.396108 0.378607 0.435079 0.413933 0.417254 0.396108 0.469041 0.435079 0.451134 0.417254 0.523586 0.469041 0.50549 0.451134 -1.76938 0.877583 -1.77802 0.862174 -0.809738 -1.76938 -0.829738 -1.77802 -0.51959 -0.809738 -0.542158 -0.829738 -0.37894 -0.51959 -0.402262 -0.542158 -0.288481 -0.37894 -0.311975 -0.402262 -0.219786 -0.288481 -0.243197 -0.311975 -0.162407 -0.219786 -0.185602 -0.243197 -0.111842 -0.162407 -0.134745 -0.185602 -0.0659356 -0.111842 -0.0885004 -0.134745 -0.0235709 -0.0659356 -0.0457751 -0.0885004 0.0158675 -0.0235709 -0.00596727 -0.0457751 0.0527439 0.0158675 0.0312772 -0.00596727 0.0872921 0.0527439 0.0661857 0.0312772 0.119679 0.0872921 0.0989204 0.0661857 0.150037 0.119679 0.129611 0.0989204 0.178483 0.150037 0.158372 0.129611 0.205125 0.178483 0.185311 0.158372 0.230069 0.205125 0.210534 0.185311 0.253422 0.230069 0.234147 0.210534 0.275293 0.253422 0.256259 0.234147 0.295794 0.275293 0.276983 0.256259 0.315048 0.295794 0.296439 0.276983 0.333185 0.315048 0.314759 0.296439 0.350357 0.333185 0.332095 0.314759 0.36675 0.350357 0.34863 0.332095 0.382607 0.36675 0.364607 0.34863 0.398274 0.382607 0.380371 0.364607 0.414308 0.398274 0.396474 0.380371 0.431729 0.414308 0.413933 0.396474 0.452879 0.431729 0.435079 0.413933 0.486926 0.452879 0.469041 0.435079 0.541661 0.486926 0.523586 0.469041 -1.76284 0.892134 -1.76938 0.877583 -0.792302 -1.76284 -0.809738 -1.76938 -0.499491 -0.792302 -0.51959 -0.809738 -0.357856 -0.499491 -0.37894 -0.51959 -0.266948 -0.357856 -0.288481 -0.37894 -0.198046 -0.266948 -0.219786 -0.288481 -0.140602 -0.198046 -0.162407 -0.219786 -0.0900695 -0.140602 -0.111842 -0.162407 -0.0442675 -0.0900695 -0.0659356 -0.111842 -0.00206348 -0.0442675 -0.0235709 -0.0659356 0.0371717 -0.00206348 0.0158675 -0.0235709 0.0738133 0.0371717 0.0527439