# vtk DataFile Version 3.0
#This file was generated by the deal.II library on 2025/4/19 at 12:24:43
ASCII
DATASET UNSTRUCTURED_GRID

POINTS 1152 double
0 1.5 2
0 1.5 2.5
0 2 2
0 2 2.5
0 2 1.5
0 2 2
0 2.5 1.5
0 2.5 2
0 0.5 0.5
0 0.5 0
0 0 0.5
0 0 0
0 0.5 0.5
0 0 0.5
0 0.5 1
0 0 1
0 0.5 1.5
0 0.5 1
0 0 1.5
0 0 1
0 0.5 1.5
0 0 1.5
0 0.5 2
0 0 2
0 0.5 2
0 0 2
0 0.5 2.5
0 0 2.5
0 0.5 3
0 0 3
0 0.5 3.5
0 0 3.5
0 0.5 3
0 0.5 2.5
0 0 3
0 0 2.5
0 0.5 4
0 0.5 3.5
0 0 4
0 0 3.5
0 0.5 4
0 0 4
0 0.5 4.5
0 0 4.5
0 0.5 5
0 0.5 4.5
0 0 5
0 0 4.5
0 0.5 5.5
0 0 5.5
0 0.5 6
0 0 6
0 0.5 5.5
0 0.5 5
0 0 5.5
0 0 5
0 3.5 0.5
0 4 0.5
0 3.5 0
0 4 0
0 3.5 0.5
0 3.5 0
0 3 0.5
0 3 0
0 2 0.5
0 2.5 0.5
0 2 0
0 2.5 0
0 2.5 0.5
0 3 0.5
0 2.5 0
0 3 0
0 1.5 0.5
0 2 0.5
0 1.5 0
0 2 0
0 1.5 0.5
0 1.5 0
0 1 0.5
0 1 0
0 1 0.5
0 1 0
0 0.5 0.5
0 0.5 0
0 3.5 1.5
0 4 1.5
0 3.5 1
0 4 1
0 3.5 0.5
0 3.5 1
0 4 0.5
0 4 1
0 3.5 1.5
0 3.5 2
0 4 1.5
0 4 2
0 2.5 1.5
0 2.5 2
0 3 1.5
0 3 2
0 3.5 1.5
0 3 1.5
0 3.5 2
0 3 2
0 1.5 3
0 2 3
0 1.5 2.5
0 2 2.5
0 1.5 3
0 1.5 3.5
0 2 3
0 2 3.5
0 1.5 4
0 2 4
0 1.5 3.5
0 2 3.5
0 1.5 4
0 1.5 4.5
0 2 4
0 2 4.5
0 1.5 5
0 2 5
0 1.5 4.5
0 2 4.5
0 1.5 5.5
0 1.5 6
0 2 5.5
0 2 6
0 1.5 5.5
0 2 5.5
0 1.5 5
0 2 5
0 1 5.5
0 0.5 5.5
0 1 6
0 0.5 6
0 1.5 5.5
0 1 5.5
0 1.5 6
0 1 6
0 1 0.5
0 0.5 0.5
0 1 1
0 0.5 1
0 1.5 2
0 1 2
0 1.5 2.5
0 1 2.5
0 2 0.5
0 2 1
0 2.5 0.5
0 2.5 1
0 1.5 0.5
0 1.5 1
0 2 0.5
0 2 1
0 1 4
0 1 3.5
0 0.5 4
0 0.5 3.5
0 1 3
0 0.5 3
0 1 3.5
0 0.5 3.5
0 1 4
0 0.5 4
0 1 4.5
0 0.5 4.5
0 1 2
0 0.5 2
0 1 2.5
0 0.5 2.5
0 1.5 5.5
0 1.5 5
0 1 5.5
0 1 5
0 1.5 5
0 1.5 4.5
0 1 5
0 1 4.5
0 1 5.5
0 1 5
0 0.5 5.5
0 0.5 5
0 1 5
0 1 4.5
0 0.5 5
0 0.5 4.5
0 3.5 0.5
0 3 0.5
0 3.5 1
0 3 1
0 2.5 0.5
0 2.5 1
0 3 0.5
0 3 1
0 1.5 4
0 1.5 3.5
0 1 4
0 1 3.5
0 1.5 3
0 1 3
0 1.5 3.5
0 1 3.5
0 1 1.5
0 1 1
0 0.5 1.5
0 0.5 1
0 1.5 0.5
0 1 0.5
0 1.5 1
0 1 1
0 1.5 1.5
0 1.5 1
0 1 1.5
0 1 1
0 1.5 1.5
0 1.5 2
0 2 1.5
0 2 2
0 2 1.5
0 2.5 1.5
0 2 1
0 2.5 1
0 1.5 1.5
0 2 1.5
0 1.5 1
0 2 1
0 1 1.5
0 0.5 1.5
0 1 2
0 0.5 2
0 1 3
0 1 2.5
0 0.5 3
0 0.5 2.5
0 3.5 1.5
0 3.5 1
0 3 1.5
0 3 1
0 2.5 1.5
0 3 1.5
0 2.5 1
0 3 1
0 1.5 3
0 1.5 2.5
0 1 3
0 1 2.5
0 1.5 4
0 1 4
0 1.5 4.5
0 1 4.5
0 1.5 1.5
0 1 1.5
0 1.5 2
0 1 2
0.99131 0 0.496726
0.992036 0 0.996604
0.491108 0 0.495692
0.490295 0 0.994945
0.491108 0 0.495692
0 0 0.5
0.5 0 0
0 0 0
0.491108 0 0.495692
0.490295 0 0.994945
0 0 0.5
0 0 1
0.495583 0 1.49758
0 0 1.5
0.490295 0 0.994945
0 0 1
0.495583 0 1.49758
0.498806 0 1.99938
0 0 1.5
0 0 2
0.498806 0 1.99938
0.499828 0 2.49991
0 0 2
0 0 2.5
0.499991 0 3
0 0 3
0.499828 0 2.49991
0 0 2.5
0.499991 0 3
0.499998 0 3.5
0 0 3
0 0 3.5
0.5 0 4
0 0 4
0.499998 0 3.5
0 0 3.5
0.5 0 4
0.5 0 4.5
0 0 4
0 0 4.5
0.5 0 5
0 0 5
0.5 0 4.5
0 0 4.5
0.5 0 5.5
0 0 5.5
0.5 0 5
0 0 5
0.5 0 5.5
0.5 0 6
0 0 5.5
0 0 6
1.49346 0 0.498037
0.99131 0 0.496726
1.5 0 0
1 0 0
1.49346 0 0.498037
1.5 0 0
2 0 0.5
2 0 0
1 0 5.5
1 0 6
0.5 0 5.5
0.5 0 6
1.5 0 5.5
2 0 5.5
1.5 0 6
2 0 6
1.5 0 5.5
1.5 0 6
1 0 5.5
1 0 6
1.49346 0 0.498037
2 0 0.5
1.4933 0 0.997897
2 0 1
1.49707 0 1.49888
1.4933 0 0.997897
2 0 1.5
2 0 1
1.49707 0 1.49888
2 0 1.5
1.49903 0 1.99959
2 0 2
1.49903 0 1.99959
2 0 2
1.49984 0 2.49993
2 0 2.5
1.49997 0 2.99999
1.49984 0 2.49993
2 0 3
2 0 2.5
1.49997 0 2.99999
2 0 3
1.5 0 3.5
2 0 3.5
1.5 0 4
1.5 0 3.5
2 0 4
2 0 3.5
1.5 0 4
2 0 4
1.5 0 4.5
2 0 4.5
1.5 0 5
1.5 0 4.5
2 0 5
2 0 4.5
1.5 0 5.5
1.5 0 5
2 0 5.5
2 0 5
0.995505 0 1.49796
0.495583 0 1.49758
0.992036 0 0.996604
0.490295 0 0.994945
0.995505 0 1.49796
0.998338 0 1.99921
0.495583 0 1.49758
0.498806 0 1.99938
0.999928 0 2.99997
0.499991 0 3
0.999663 0 2.49984
0.499828 0 2.49991
0.999928 0 2.99997
0.999995 0 3.5
0.499991 0 3
0.499998 0 3.5
0.999999 0 4
1 0 4.5
0.5 0 4
0.5 0 4.5
1 0 5
0.5 0 5
1 0 4.5
0.5 0 4.5
1.49346 0 0.498037
1.4933 0 0.997897
0.99131 0 0.496726
0.992036 0 0.996604
1.49707 0 1.49888
0.995505 0 1.49796
1.4933 0 0.997897
0.992036 0 0.996604
1.49707 0 1.49888
1.49903 0 1.99959
0.995505 0 1.49796
0.998338 0 1.99921
1.49997 0 2.99999
0.999928 0 2.99997
1.49984 0 2.49993
0.999663 0 2.49984
1.49997 0 2.99999
1.5 0 3.5
0.999928 0 2.99997
0.999995 0 3.5
1.5 0 4
1.5 0 4.5
0.999999 0 4
1 0 4.5
1.5 0 5
1 0 5
1.5 0 4.5
1 0 4.5
1 0 5.5
0.5 0 5.5
1 0 5
0.5 0 5
1.5 0 5.5
1 0 5.5
1.5 0 5
1 0 5
0.998338 0 1.99921
0.999663 0 2.49984
0.498806 0 1.99938
0.499828 0 2.49991
0.999999 0 4
0.5 0 4
0.999995 0 3.5
0.499998 0 3.5
1.49903 0 1.99959
1.49984 0 2.49993
0.998338 0 1.99921
0.999663 0 2.49984
1.5 0 4
0.999999 0 4
1.5 0 3.5
0.999995 0 3.5
0.99131 0 0.496726
0.491108 0 0.495692
1 0 0
0.5 0 0
0.99565 0.994756 0
0.996164 0.495905 0
0.495632 0.993016 0
0.49505 0.492755 0
0.49505 0.492755 0
0.5 0 0
0 0.5 0
0 0 0
0.499994 3.49999 0
0 3.5 0
0.5 4 0
0 4 0
0.499994 3.49999 0
0.499968 2.99992 0
0 3.5 0
0 3 0
0.499729 2.4994 0
0 2.5 0
0.499968 2.99992 0
0 3 0
0.498886 1.99745 0
0 2 0
0.499729 2.4994 0
0 2.5 0
0.496935 1.49401 0
0.495632 0.993016 0
0 1.5 0
0 1 0
0.496935 1.49401 0
0 1.5 0
0.498886 1.99745 0
0 2 0
0.996164 0.495905 0
1 0 0
0.49505 0.492755 0
0.5 0 0
1.49762 0.498228 0
1.5 0 0
0.996164 0.495905 0
1 0 0
1.49762 0.498228 0
2 0.5 0
1.5 0 0
2 0 0
1.49999 3.49999 0
1.5 4 0
2 3.5 0
2 4 0
1.49999 3.49999 0
2 3.5 0
1.49996 2.99993 0
2 3 0
1.49981 2.49973 0
1.49996 2.99993 0
2 2.5 0
2 3 0
1.49919 1.99898 0
1.49981 2.49973 0
2 2 0
2 2.5 0
1.49794 1.49815 0
1.49919 1.99898 0
2 1.5 0
2 2 0
1.49794 1.49815 0
2 1.5 0
1.49714 0.997549 0
2 1 0
1.49714 0.997549 0
2 1 0
1.49762 0.498228 0
2 0.5 0
0.999989 3.49998 0
0.499994 3.49999 0
1 4 0
0.5 4 0
1.49999 3.49999 0
0.999989 3.49998 0
1.5 4 0
1 4 0
0.999989 3.49998 0
0.999905 2.99982 0
0.499994 3.49999 0
0.499968 2.99992 0
0.999628 2.4993 0
0.499729 2.4994 0
0.999905 2.99982 0
0.499968 2.99992 0
0.99864 1.99775 0
0.498886 1.99745 0
0.999628 2.4993 0
0.499729 2.4994 0
1.49794 1.49815 0
1.49714 0.997549 0
0.9972 1.49597 0
0.99565 0.994756 0
1.49794 1.49815 0
0.9972 1.49597 0
1.49919 1.99898 0
0.99864 1.99775 0
1.49714 0.997549 0
1.49762 0.498228 0
0.99565 0.994756 0
0.996164 0.495905 0
1.49999 3.49999 0
1.49996 2.99993 0
0.999989 3.49998 0
0.999905 2.99982 0
1.49981 2.49973 0
0.999628 2.4993 0
1.49996 2.99993 0
0.999905 2.99982 0
0.9972 1.49597 0
0.496935 1.49401 0
0.99864 1.99775 0
0.498886 1.99745 0
0.9972 1.49597 0
0.99565 0.994756 0
0.496935 1.49401 0
0.495632 0.993016 0
1.49919 1.99898 0
0.99864 1.99775 0
1.49981 2.49973 0
0.999628 2.4993 0
0.495632 0.993016 0
0.49505 0.492755 0
0 1 0
0 0.5 0
2 1.5 2
2 2 2
2 1.5 2.5
2 2 2.5
2 2 1.5
2 2.5 1.5
2 2 2
2 2.5 2
2 0.5 0.5
2 0 0.5
2 0.5 0
2 0 0
2 0.5 0.5
2 0.5 1
2 0 0.5
2 0 1
2 0.5 1.5
2 0 1.5
2 0.5 1
2 0 1
2 0.5 1.5
2 0.5 2
2 0 1.5
2 0 2
2 0.5 2
2 0.5 2.5
2 0 2
2 0 2.5
2 0.5 3
2 0.5 3.5
2 0 3
2 0 3.5
2 0.5 3
2 0 3
2 0.5 2.5
2 0 2.5
2 0.5 4
2 0 4
2 0.5 3.5
2 0 3.5
2 0.5 4
2 0.5 4.5
2 0 4
2 0 4.5
2 0.5 5
2 0 5
2 0.5 4.5
2 0 4.5
2 0.5 5.5
2 0.5 6
2 0 5.5
2 0 6
2 0.5 5.5
2 0 5.5
2 0.5 5
2 0 5
2 3.5 0.5
2 3.5 0
2 4 0.5
2 4 0
2 3.5 0.5
2 3 0.5
2 3.5 0
2 3 0
2 2.5 0.5
2 2.5 0
2 3 0.5
2 3 0
2 2 0.5
2 2 0
2 2.5 0.5
2 2.5 0
2 1.5 0.5
2 1.5 0
2 2 0.5
2 2 0
2 1.5 0.5
2 1 0.5
2 1.5 0
2 1 0
2 1 0.5
2 0.5 0.5
2 1 0
2 0.5 0
2 3.5 0.5
2 4 0.5
2 3.5 1
2 4 1
2 3.5 1.5
2 3.5 1
2 4 1.5
2 4 1
2 3.5 1.5
2 4 1.5
2 3.5 2
2 4 2
2 2.5 1.5
2 3 1.5
2 2.5 2
2 3 2
2 3.5 1.5
2 3.5 2
2 3 1.5
2 3 2
2 1.5 3
2 1.5 2.5
2 2 3
2 2 2.5
2 1.5 3
2 2 3
2 1.5 3.5
2 2 3.5
2 1.5 4
2 1.5 3.5
2 2 4
2 2 3.5
2 1.5 4
2 2 4
2 1.5 4.5
2 2 4.5
2 1.5 5
2 1.5 4.5
2 2 5
2 2 4.5
2 1.5 5.5
2 2 5.5
2 1.5 6
2 2 6
2 1.5 5.5
2 1.5 5
2 2 5.5
2 2 5
2 1 5.5
2 1 6
2 0.5 5.5
2 0.5 6
2 1.5 5.5
2 1.5 6
2 1 5.5
2 1 6
2 1 0.5
2 1 1
2 0.5 0.5
2 0.5 1
2 1.5 2
2 1.5 2.5
2 1 2
2 1 2.5
2 1 4
2 0.5 4
2 1 3.5
2 0.5 3.5
2 1 3
2 1 3.5
2 0.5 3
2 0.5 3.5
2 1 4
2 1 4.5
2 0.5 4
2 0.5 4.5
2 2 1.5
2 2 1
2 2.5 1.5
2 2.5 1
2 1 2
2 1 2.5
2 0.5 2
2 0.5 2.5
2 1.5 5.5
2 1 5.5
2 1.5 5
2 1 5
2 1.5 5
2 1 5
2 1.5 4.5
2 1 4.5
2 1 5.5
2 0.5 5.5
2 1 5
2 0.5 5
2 1 5
2 0.5 5
2 1 4.5
2 0.5 4.5
2 2 0.5
2 2.5 0.5
2 2 1
2 2.5 1
2 1.5 4
2 1 4
2 1.5 3.5
2 1 3.5
2 1.5 3
2 1.5 3.5
2 1 3
2 1 3.5
2 1 1.5
2 0.5 1.5
2 1 1
2 0.5 1
2 1.5 0.5
2 1.5 1
2 1 0.5
2 1 1
2 1.5 1.5
2 1 1.5
2 1.5 1
2 1 1
2 1.5 1.5
2 2 1.5
2 1.5 2
2 2 2
2 1 1.5
2 1 2
2 0.5 1.5
2 0.5 2
2 1 3
2 0.5 3
2 1 2.5
2 0.5 2.5
2 3.5 0.5
2 3.5 1
2 3 0.5
2 3 1
2 2.5 0.5
2 3 0.5
2 2.5 1
2 3 1
2 1.5 0.5
2 2 0.5
2 1.5 1
2 2 1
2 3.5 1.5
2 3 1.5
2 3.5 1
2 3 1
2 2.5 1.5
2 2.5 1
2 3 1.5
2 3 1
2 1.5 3
2 1 3
2 1.5 2.5
2 1 2.5
2 1.5 4
2 1.5 4.5
2 1 4
2 1 4.5
2 1.5 1.5
2 1.5 2
2 1 1.5
2 1 2
2 1.5 1.5
2 1.5 1
2 2 1.5
2 2 1
0.998008 0.994666 6
0.497554 0.992827 6
0.998071 0.495527 6
0.49652 0.492483 6
0.49652 0.492483 6
0 0.5 6
0.5 0 6
0 0 6
0.498492 1.49445 6
0 1.5 6
0.497554 0.992827 6
0 1 6
0.498492 1.49445 6
0.5 2 6
0 1.5 6
0 2 6
0.998071 0.495527 6
0.49652 0.492483 6
1 0 6
0.5 0 6
1.49911 0.49799 6
0.998071 0.495527 6
1.5 0 6
1 0 6
1.49911 0.49799 6
1.5 0 6
2 0.5 6
2 0 6
1.49894 0.997282 6
1.49911 0.49799 6
2 1 6
2 0.5 6
1.49939 1.49818 6
2 1.5 6
1.5 2 6
2 2 6
1.49939 1.49818 6
1.49894 0.997282 6
2 1.5 6
2 1 6
0.998787 1.49623 6
1 2 6
0.498492 1.49445 6
0.5 2 6
1.49939 1.49818 6
1.5 2 6
0.998787 1.49623 6
1 2 6
0.998787 1.49623 6
0.498492 1.49445 6
0.998008 0.994666 6
0.497554 0.992827 6
1.49894 0.997282 6
0.998008 0.994666 6
1.49911 0.49799 6
0.998071 0.495527 6
1.49939 1.49818 6
0.998787 1.49623 6
1.49894 0.997282 6
0.998008 0.994666 6
0.497554 0.992827 6
0 1 6
0.49652 0.492483 6
0 0.5 6
0.5 2 2
0 2 2
0.5 2 2.5
0 2 2.5
0.5 2 3
0 2 3
0.5 2 3.5
0 2 3.5
0.5 2 3
0.5 2 2.5
0 2 3
0 2 2.5
0.5 2 4
0.5 2 3.5
0 2 4
0 2 3.5
0.5 2 4
0 2 4
0.5 2 4.5
0 2 4.5
0.5 2 5
0.5 2 4.5
0 2 5
0 2 4.5
0.5 2 5.5
0 2 5.5
0.5 2 6
0 2 6
0.5 2 5.5
0.5 2 5
0 2 5.5
0 2 5
1.5 2 2
1.5 2 2.5
2 2 2
2 2 2.5
1.5 2 3
2 2 3
1.5 2 2.5
2 2 2.5
1.5 2 3
1.5 2 3.5
2 2 3
2 2 3.5
1.5 2 4
2 2 4
1.5 2 3.5
2 2 3.5
1.5 2 4
1.5 2 4.5
2 2 4
2 2 4.5
1.5 2 5
2 2 5
1.5 2 4.5
2 2 4.5
1.5 2 5.5
2 2 5.5
1.5 2 5
2 2 5
1.5 2 5.5
1.5 2 6
2 2 5.5
2 2 6
1.5 2 5.5
1 2 5.5
1.5 2 6
1 2 6
1 2 5.5
0.5 2 5.5
1 2 6
0.5 2 6
1 2 2
0.5 2 2
1 2 2.5
0.5 2 2.5
1.5 2 2
1 2 2
1.5 2 2.5
1 2 2.5
1 2 3
0.5 2 3
1 2 3.5
0.5 2 3.5
1 2 4
1 2 3.5
0.5 2 4
0.5 2 3.5
1 2 5.5
1 2 5
0.5 2 5.5
0.5 2 5
1.5 2 3
1.5 2 2.5
1 2 3
1 2 2.5
1.5 2 3
1 2 3
1.5 2 3.5
1 2 3.5
1.5 2 4
1.5 2 3.5
1 2 4
1 2 3.5
1.5 2 5
1.5 2 4.5
1 2 5
1 2 4.5
1.5 2 4
1 2 4
1.5 2 4.5
1 2 4.5
1 2 5
1 2 4.5
0.5 2 5
0.5 2 4.5
1 2 4
0.5 2 4
1 2 4.5
0.5 2 4.5
1 2 3
1 2 2.5
0.5 2 3
0.5 2 2.5
1.5 2 5.5
1.5 2 5
1 2 5.5
1 2 5
0.5 2 2
0.5 2.5 2
0 2 2
0 2.5 2
0.5 2.5 2
0.5 3 2
0 2.5 2
0 3 2
0.5 3.5 2
0 3.5 2
0.5 3 2
0 3 2
0.5 3.5 2
0.5 4 2
0 3.5 2
0 4 2
1.5 2 2
2 2 2
1.5 2.5 2
2 2.5 2
1.5 2.5 2
2 2.5 2
1.5 3 2
2 3 2
1.5 3.5 2
2 3.5 2
1.5 4 2
2 4 2
1.5 3.5 2
1.5 3 2
2 3.5 2
2 3 2
1 2 2
1 2.5 2
0.5 2 2
0.5 2.5 2
1.5 2 2
1.5 2.5 2
1 2 2
1 2.5 2
1 3.5 2
1 4 2
0.5 3.5 2
0.5 4 2
1.5 3.5 2
1.5 4 2
1 3.5 2
1 4 2
1.5 2.5 2
1.5 3 2
1 2.5 2
1 3 2
1.5 3.5 2
1 3.5 2
1.5 3 2
1 3 2
1 2.5 2
1 3 2
0.5 2.5 2
0.5 3 2
1 3.5 2
0.5 3.5 2
1 3 2
0.5 3 2
0.992367 4 0.495483
0.49181 4 0.4948
0.993738 4 0.995271
0.493927 4 0.995571
0.49181 4 0.4948
0.5 4 0
0 4 0.5
0 4 0
0.49181 4 0.4948
0 4 0.5
0.493927 4 0.995571
0 4 1
0.497287 4 1.49738
0.493927 4 0.995571
0 4 1.5
0 4 1
0.497287 4 1.49738
0 4 1.5
0.5 4 2
0 4 2
1.4938 4 0.49679
1.5 4 0
0.992367 4 0.495483
1 4 0
1.4938 4 0.49679
2 4 0.5
1.5 4 0
2 4 0
1.4938 4 0.49679
1.49474 4 0.996275
2 4 0.5
2 4 1
1.4979 4 1.49785
1.5 4 2
2 4 1.5
2 4 2
1.4979 4 1.49785
2 4 1.5
1.49474 4 0.996275
2 4 1
0.996772 4 1.49685
0.497287 4 1.49738
1 4 2
0.5 4 2
1.4979 4 1.49785
0.996772 4 1.49685
1.5 4 2
1 4 2
0.996772 4 1.49685
0.993738 4 0.995271
0.497287 4 1.49738
0.493927 4 0.995571
1.4938 4 0.49679
0.992367 4 0.495483
1.49474 4 0.996275
0.993738 4 0.995271
1.4979 4 1.49785
1.49474 4 0.996275
0.996772 4 1.49685
0.993738 4 0.995271
0.992367 4 0.495483
1 4 0
0.49181 4 0.4948
0.5 4 0

CELLS 288 1440
4	0	1	3	2
4	4	5	7	6
4	8	9	11	10
4	12	13	15	14
4	16	17	19	18
4	20	21	23	22
4	24	25	27	26
4	28	29	31	30
4	32	33	35	34
4	36	37	39	38
4	40	41	43	42
4	44	45	47	46
4	48	49	51	50
4	52	53	55	54
4	56	57	59	58
4	60	61	63	62
4	64	65	67	66
4	68	69	71	70
4	72	73	75	74
4	76	77	79	78
4	80	81	83	82
4	84	85	87	86
4	88	89	91	90
4	92	93	95	94
4	96	97	99	98
4	100	101	103	102
4	104	105	107	106
4	108	109	111	110
4	112	113	115	114
4	116	117	119	118
4	120	121	123	122
4	124	125	127	126
4	128	129	131	130
4	132	133	135	134
4	136	137	139	138
4	140	141	143	142
4	144	145	147	146
4	148	149	151	150
4	152	153	155	154
4	156	157	159	158
4	160	161	163	162
4	164	165	167	166
4	168	169	171	170
4	172	173	175	174
4	176	177	179	178
4	180	181	183	182
4	184	185	187	186
4	188	189	191	190
4	192	193	195	194
4	196	197	199	198
4	200	201	203	202
4	204	205	207	206
4	208	209	211	210
4	212	213	215	214
4	216	217	219	218
4	220	221	223	222
4	224	225	227	226
4	228	229	231	230
4	232	233	235	234
4	236	237	239	238
4	240	241	243	242
4	244	245	247	246
4	248	249	251	250
4	252	253	255	254
4	256	257	259	258
4	260	261	263	262
4	264	265	267	266
4	268	269	271	270
4	272	273	275	274
4	276	277	279	278
4	280	281	283	282
4	284	285	287	286
4	288	289	291	290
4	292	293	295	294
4	296	297	299	298
4	300	301	303	302
4	304	305	307	306
4	308	309	311	310
4	312	313	315	314
4	316	317	319	318
4	320	321	323	322
4	324	325	327	326
4	328	329	331	330
4	332	333	335	334
4	336	337	339	338
4	340	341	343	342
4	344	345	347	346
4	348	349	351	350
4	352	353	355	354
4	356	357	359	358
4	360	361	363	362
4	364	365	367	366
4	368	369	371	370
4	372	373	375	374
4	376	377	379	378
4	380	381	383	382
4	384	385	387	386
4	388	389	391	390
4	392	393	395	394
4	396	397	399	398
4	400	401	403	402
4	404	405	407	406
4	408	409	411	410
4	412	413	415	414
4	416	417	419	418
4	420	421	423	422
4	424	425	427	426
4	428	429	431	430
4	432	433	435	434
4	436	437	439	438
4	440	441	443	442
4	444	445	447	446
4	448	449	451	450
4	452	453	455	454
4	456	457	459	458
4	460	461	463	462
4	464	465	467	466
4	468	469	471	470
4	472	473	475	474
4	476	477	479	478
4	480	481	483	482
4	484	485	487	486
4	488	489	491	490
4	492	493	495	494
4	496	497	499	498
4	500	501	503	502
4	504	505	507	506
4	508	509	511	510
4	512	513	515	514
4	516	517	519	518
4	520	521	523	522
4	524	525	527	526
4	528	529	531	530
4	532	533	535	534
4	536	537	539	538
4	540	541	543	542
4	544	545	547	546
4	548	549	551	550
4	552	553	555	554
4	556	557	559	558
4	560	561	563	562
4	564	565	567	566
4	568	569	571	570
4	572	573	575	574
4	576	577	579	578
4	580	581	583	582
4	584	585	587	586
4	588	589	591	590
4	592	593	595	594
4	596	597	599	598
4	600	601	603	602
4	604	605	607	606
4	608	609	611	610
4	612	613	615	614
4	616	617	619	618
4	620	621	623	622
4	624	625	627	626
4	628	629	631	630
4	632	633	635	634
4	636	637	639	638
4	640	641	643	642
4	644	645	647	646
4	648	649	651	650
4	652	653	655	654
4	656	657	659	658
4	660	661	663	662
4	664	665	667	666
4	668	669	671	670
4	672	673	675	674
4	676	677	679	678
4	680	681	683	682
4	684	685	687	686
4	688	689	691	690
4	692	693	695	694
4	696	697	699	698
4	700	701	703	702
4	704	705	707	706
4	708	709	711	710
4	712	713	715	714
4	716	717	719	718
4	720	721	723	722
4	724	725	727	726
4	728	729	731	730
4	732	733	735	734
4	736	737	739	738
4	740	741	743	742
4	744	745	747	746
4	748	749	751	750
4	752	753	755	754
4	756	757	759	758
4	760	761	763	762
4	764	765	767	766
4	768	769	771	770
4	772	773	775	774
4	776	777	779	778
4	780	781	783	782
4	784	785	787	786
4	788	789	791	790
4	792	793	795	794
4	796	797	799	798
4	800	801	803	802
4	804	805	807	806
4	808	809	811	810
4	812	813	815	814
4	816	817	819	818
4	820	821	823	822
4	824	825	827	826
4	828	829	831	830
4	832	833	835	834
4	836	837	839	838
4	840	841	843	842
4	844	845	847	846
4	848	849	851	850
4	852	853	855	854
4	856	857	859	858
4	860	861	863	862
4	864	865	867	866
4	868	869	871	870
4	872	873	875	874
4	876	877	879	878
4	880	881	883	882
4	884	885	887	886
4	888	889	891	890
4	892	893	895	894
4	896	897	899	898
4	900	901	903	902
4	904	905	907	906
4	908	909	911	910
4	912	913	915	914
4	916	917	919	918
4	920	921	923	922
4	924	925	927	926
4	928	929	931	930
4	932	933	935	934
4	936	937	939	938
4	940	941	943	942
4	944	945	947	946
4	948	949	951	950
4	952	953	955	954
4	956	957	959	958
4	960	961	963	962
4	964	965	967	966
4	968	969	971	970
4	972	973	975	974
4	976	977	979	978
4	980	981	983	982
4	984	985	987	986
4	988	989	991	990
4	992	993	995	994
4	996	997	999	998
4	1000	1001	1003	1002
4	1004	1005	1007	1006
4	1008	1009	1011	1010
4	1012	1013	1015	1014
4	1016	1017	1019	1018
4	1020	1021	1023	1022
4	1024	1025	1027	1026
4	1028	1029	1031	1030
4	1032	1033	1035	1034
4	1036	1037	1039	1038
4	1040	1041	1043	1042
4	1044	1045	1047	1046
4	1048	1049	1051	1050
4	1052	1053	1055	1054
4	1056	1057	1059	1058
4	1060	1061	1063	1062
4	1064	1065	1067	1066
4	1068	1069	1071	1070
4	1072	1073	1075	1074
4	1076	1077	1079	1078
4	1080	1081	1083	1082
4	1084	1085	1087	1086
4	1088	1089	1091	1090
4	1092	1093	1095	1094
4	1096	1097	1099	1098
4	1100	1101	1103	1102
4	1104	1105	1107	1106
4	1108	1109	1111	1110
4	1112	1113	1115	1114
4	1116	1117	1119	1118
4	1120	1121	1123	1122
4	1124	1125	1127	1126
4	1128	1129	1131	1130
4	1132	1133	1135	1134
4	1136	1137	1139	1138
4	1140	1141	1143	1142
4	1144	1145	1147	1146
4	1148	1149	1151	1150

CELL_TYPES 288
 9 9 9 9 9 9 9 9 9 9 9 9 9 9 9 9 9 9 9 9 9 9 9 9 9 9 9 9 9 9 9 9 9 9 9 9 9 9 9 9 9 9 9 9 9 9 9 9 9 9 9 9 9 9 9 9 9 9 9 9 9 9 9 9 9 9 9 9 9 9 9 9 9 9 9 9 9 9 9 9 9 9 9 9 9 9 9 9 9 9 9 9 9 9 9 9 9 9 9 9 9 9 9 9 9 9 9 9 9 9 9 9 9 9 9 9 9 9 9 9 9 9 9 9 9 9 9 9 9 9 9 9 9 9 9 9 9 9 9 9 9 9 9 9 9 9 9 9 9 9 9 9 9 9 9 9 9 9 9 9 9 9 9 9 9 9 9 9 9 9 9 9 9 9 9 9 9 9 9 9 9 9 9 9 9 9 9 9 9 9 9 9 9 9 9 9 9 9 9 9 9 9 9 9 9 9 9 9 9 9 9 9 9 9 9 9 9 9 9 9 9 9 9 9 9 9 9 9 9 9 9 9 9 9 9 9 9 9 9 9 9 9 9 9 9 9 9 9 9 9 9 9 9 9 9 9 9 9 9 9 9 9 9 9 9 9 9 9 9 9 9 9 9 9 9 9 9 9 9 9 9 9 9 9 9 9 9 9
POINT_DATA 1152
SCALARS phi double 1
LOOKUP_TABLE default
1.43198 1.46023 -2.16563 -4.47123 -0.867546 -2.16563 -2.59298 -5.0104 1.92631 0.877583 2.12815 1 1.92631 2.12815 3.22699 3.55975 4.93055 3.22699 5.47918 3.55975 4.93055 5.47918 7.3938 8.29835 7.3938 8.29835 11.2896 12.781 17.7678 20.2267 28.7108 32.7647 17.7678 11.2896 20.2267 12.781 47.1576 28.7108 53.8413 32.7647 47.1576 53.8413 78.0199 89.0396 129.286 78.0199 147.454 89.0396 214.032 243.986 353.763 403.149 214.032 129.286 243.986 147.454 -1.06453 -0.598251 -0.936457 -0.653644 -1.06453 -0.936457 -1.1528 -0.989992 -0.206685 -0.841437 -0.416147 -0.801144 -0.841437 -1.1528 -0.801144 -0.989992 0.596051 -0.206685 0.0707372 -0.416147 0.596051 0.0707372 1.37023 0.540302 1.37023 0.540302 1.92631 0.877583 -3.19941 -1.93193 -1.70408 -0.935317 -1.06453 -1.70408 -0.598251 -0.935317 -3.19941 -6.01023 -1.93193 -3.92051 -2.59298 -5.0104 -3.43934 -6.40581 -3.19941 -3.43934 -6.01023 -6.40581 1.56191 -8.21741 1.46023 -4.47123 1.56191 1.99171 -8.21741 -14.1317 3.10532 -23.4776 1.99171 -14.1317 3.10532 5.39003 -23.4776 -38.4379 9.53941 -62.7206 5.39003 -38.4379 16.6033 28.258 -102.533 -168.165 16.6033 -102.533 9.53941 -62.7206 131.502 214.032 217.694 353.763 16.6033 131.502 28.258 217.694 1.37023 1.92631 2.31016 3.22699 1.43198 4.90162 1.46023 7.1807 -0.206685 -0.289733 -0.841437 -1.33626 0.596051 1.03375 -0.206685 -0.289733 28.7427 17.5416 47.1576 28.7108 10.9934 17.7678 17.5416 28.7108 28.7427 47.1576 47.6589 78.0199 4.90162 7.3938 7.1807 11.2896 16.6033 9.53941 131.502 79.229 9.53941 5.39003 79.229 47.6589 131.502 79.229 214.032 129.286 79.229 47.6589 129.286 78.0199 -1.06453 -1.1528 -1.70408 -1.84961 -0.841437 -1.33626 -1.1528 -1.84961 3.10532 1.99171 28.7427 17.5416 1.56191 10.9934 1.99171 17.5416 3.41896 2.31016 4.93055 3.22699 0.596051 1.37023 1.03375 2.31016 1.31452 1.03375 3.41896 2.31016 1.31452 1.43198 -0.867546 -2.16563 -0.867546 -2.59298 -0.289733 -1.33626 1.31452 -0.867546 1.03375 -0.289733 3.41896 4.93055 4.90162 7.3938 10.9934 7.1807 17.7678 11.2896 -3.19941 -1.70408 -3.43934 -1.84961 -2.59298 -3.43934 -1.33626 -1.84961 1.56191 1.46023 10.9934 7.1807 3.10532 28.7427 5.39003 47.6589 1.31452 3.41896 1.43198 4.90162 2.92752 4.97332 2.41889 4.07405 2.41889 2.12815 1 1 2.41889 4.07405 2.12815 3.55975 6.10791 5.47918 4.07405 3.55975 6.10791 8.88227 5.47918 8.29835 8.88227 13.1681 8.29835 12.781 20.3181 20.2267 13.1681 12.781 20.3181 32.5371 20.2267 32.7647 53.3504 53.8413 32.5371 32.7647 53.3504 88.4055 53.8413 89.0396 146.832 147.454 88.4055 89.0396 243.529 243.986 146.832 147.454 243.529 402.968 243.986 403.149 3.77245 2.92752 1 1 3.77245 1 5.19122 1 242.774 402.669 243.529 402.968 241.53 239.479 402.177 401.364 241.53 402.177 242.774 402.669 3.77245 5.19122 6.45355 8.93596 8.93367 6.45355 11.8522 8.93596 8.93367 11.8522 11.458 14.1079 11.458 14.1079 14.8637 16.6046 20.7178 14.8637 21.1283 16.6046 20.7178 21.1283 31.5433 30.5235 51.2064 31.5433 49.0061 30.5235 51.2064 49.0061 85.6361 82.7941 144.116 85.6361 141.328 82.7941 241.53 144.116 239.479 141.328 7.17146 6.10791 4.97332 4.07405 7.17146 9.85174 6.10791 8.88227 20.4685 20.3181 13.8072 13.1681 20.4685 32.1619 20.3181 32.5371 52.5409 87.3599 53.3504 88.4055 145.807 146.832 87.3599 88.4055 3.77245 6.45355 2.92752 4.97332 8.93367 7.17146 6.45355 4.97332 8.93367 11.458 7.17146 9.85174 20.7178 20.4685 14.8637 13.8072 20.7178 31.5433 20.4685 32.1619 51.2064 85.6361 52.5409 87.3599 144.116 145.807 85.6361 87.3599 242.774 243.529 145.807 146.832 241.53 242.774 144.116 145.807 9.85174 13.8072 8.88227 13.1681 52.5409 53.3504 32.1619 32.5371 11.458 14.8637 9.85174 13.8072 51.2064 52.5409 31.5433 32.1619 2.92752 2.41889 1 1 0.544707 0.879538 0.546166 0.881033 0.881033 1 0.877583 1 -0.936462 -0.936457 -0.653644 -0.653644 -0.936462 -0.989982 -0.936457 -0.989992 -0.800785 -0.801144 -0.989982 -0.989992 -0.413828 -0.416147 -0.800785 -0.801144 0.0767141 0.546166 0.0707372 0.540302 0.0767141 0.0707372 -0.413828 -0.416147 0.879538 1 0.881033 1 0.878431 1 0.879538 1 0.878431 0.877583 1 1 -0.936461 -0.653644 -0.936457 -0.653644 -0.936461 -0.936457 -0.989983 -0.989992 -0.800982 -0.989983 -0.801144 -0.989992 -0.415215 -0.800982 -0.416147 -0.801144 0.0725832 -0.415215 0.0707372 -0.416147 0.0725832 0.0707372 0.542363 0.540302 0.542363 0.540302 0.878431 0.877583 -0.936464 -0.936462 -0.653644 -0.653644 -0.936461 -0.936464 -0.653644 -0.653644 -0.936464 -0.989967 -0.936462 -0.989982 -0.800724 -0.800785 -0.989967 -0.989982 -0.414098 -0.413828 -0.800724 -0.800785 0.0725832 0.542363 0.0747614 0.544707 0.0725832 0.0747614 -0.415215 -0.414098 0.542363 0.878431 0.544707 0.879538 -0.936461 -0.989983 -0.936464 -0.989967 -0.800982 -0.800724 -0.989983 -0.989967 0.0747614 0.0767141 -0.414098 -0.413828 0.0747614 0.544707 0.0767141 0.546166 -0.415215 -0.414098 -0.800982 -0.800724 0.546166 0.881033 0.540302 0.877583 7.24153 3.64392 5.2839 -0.647562 5.50551 3.78007 3.64392 0.799155 4.98939 5.19122 0.877583 1 4.98939 8.60319 5.19122 8.93596 11.3036 11.8522 8.60319 8.93596 11.3036 13.2034 11.8522 14.1079 13.2034 15.1133 14.1079 16.6046 18.6695 26.4696 21.1283 30.5235 18.6695 21.1283 15.1133 16.6046 42.3223 49.0061 26.4696 30.5235 42.3223 71.7744 49.0061 82.7941 123.159 141.328 71.7744 82.7941 209.524 351.977 239.479 401.364 209.524 239.479 123.159 141.328 1.99855 -0.936457 2.46483 -0.653644 1.99855 1.91028 -0.936457 -0.989992 2.22164 -0.801144 1.91028 -0.989992 2.85639 -0.416147 2.22164 -0.801144 3.65913 0.0707372 2.85639 -0.416147 3.65913 4.43331 0.0707372 0.540302 4.43331 4.98939 0.540302 0.877583 1.99855 2.46483 3.67212 4.44089 3.17364 3.67212 4.44112 4.44089 3.17364 4.44112 -0.200681 1.88904 3.78007 2.93371 0.799155 -0.59626 3.17364 -0.200681 2.93371 -0.59626 2.46354 5.2839 -7.31579 -0.647562 2.46354 -7.31579 -0.249463 -16.3728 -1.72994 -0.249463 -28.3129 -16.3728 -1.72994 -28.3129 -0.855465 -44.6834 3.41279 -0.855465 -68.8472 -44.6834 12.0955 -107.041 26.4728 -169.95 12.0955 3.41279 -107.041 -68.8472 126.994 215.909 209.524 351.977 12.0955 26.4728 126.994 215.909 4.43331 7.68637 4.98939 8.60319 7.24153 5.2839 10.7112 11.0044 23.9074 42.3223 15.3004 26.4696 11.895 15.3004 18.6695 26.4696 23.9074 41.4134 42.3223 71.7744 5.50551 5.08647 3.78007 4.03994 10.7112 11.0044 13.2034 15.1133 12.0955 126.994 3.41279 73.1024 3.41279 73.1024 -0.855465 41.4134 126.994 209.524 73.1024 123.159 73.1024 123.159 41.4134 71.7744 2.85639 2.22164 5.08647 4.03994 -1.72994 23.9074 -0.249463 15.3004 2.46354 -0.249463 11.895 15.3004 9.79201 11.3036 7.68637 8.60319 3.65913 6.40996 4.43331 7.68637 7.68757 9.79201 6.40996 7.68637 7.68757 5.50551 7.24153 3.64392 9.79201 10.7112 11.3036 13.2034 11.895 18.6695 11.0044 15.1133 1.99855 3.67212 1.91028 3.5266 2.22164 1.91028 4.03994 3.5266 3.65913 2.85639 6.40996 5.08647 3.17364 2.93371 3.67212 3.5266 3.78007 4.03994 2.93371 3.5266 2.46354 11.895 5.2839 11.0044 -1.72994 -0.855465 23.9074 41.4134 7.68757 7.24153 9.79201 10.7112 7.68757 6.40996 5.50551 5.08647 219.023 219.943 354.146 355.027 355.027 353.763 402.968 403.149 30.3097 28.258 219.943 217.694 30.3097 -168.346 28.258 -168.165 354.146 355.027 402.669 402.968 353.179 354.146 402.177 402.669 353.179 402.177 351.977 401.364 217.644 353.179 215.909 351.977 28.0195 26.4728 -169.138 -169.95 28.0195 217.644 26.4728 215.909 29.297 -168.645 30.3097 -168.346 28.0195 -169.138 29.297 -168.645 29.297 30.3097 219.023 219.943 217.644 219.023 353.179 354.146 28.0195 29.297 217.644 219.023 219.943 217.694 355.027 353.763 -1.57575 -2.16563 -4.08299 -4.47123 -8.12586 -8.21741 -14.3592 -14.1317 -8.12586 -4.08299 -8.21741 -4.47123 -23.9686 -14.3592 -23.4776 -14.1317 -23.9686 -23.4776 -39.072 -38.4379 -63.3427 -39.072 -62.7206 -38.4379 -102.991 -102.533 -168.346 -168.165 -102.991 -63.3427 -102.533 -62.7206 1.00026 -2.38754 3.64392 -0.647562 -7.72608 -7.31579 -2.38754 -0.647562 -7.72608 -15.353 -7.31579 -16.3728 -26.1126 -28.3129 -15.353 -16.3728 -26.1126 -41.8413 -28.3129 -44.6834 -66.0593 -68.8472 -41.8413 -44.6834 -104.99 -107.041 -66.0593 -68.8472 -104.99 -169.138 -107.041 -169.95 -104.99 -103.746 -169.138 -168.645 -103.746 -102.991 -168.645 -168.346 -0.603206 -1.57575 -3.44289 -4.08299 1.00026 -0.603206 -2.38754 -3.44289 -7.97493 -8.12586 -14.7344 -14.3592 -24.778 -14.7344 -23.9686 -14.3592 -103.746 -64.3683 -102.991 -63.3427 -7.72608 -2.38754 -7.97493 -3.44289 -7.72608 -7.97493 -15.353 -14.7344 -26.1126 -15.353 -24.778 -14.7344 -66.0593 -41.8413 -64.3683 -40.1175 -26.1126 -24.778 -41.8413 -40.1175 -64.3683 -40.1175 -63.3427 -39.072 -24.778 -23.9686 -40.1175 -39.072 -7.97493 -3.44289 -8.12586 -4.08299 -104.99 -66.0593 -103.746 -64.3683 -1.57575 -4.42052 -2.16563 -5.0104 -4.42052 -5.81593 -5.0104 -6.40581 -5.42035 -6.01023 -5.81593 -6.40581 -5.42035 -3.33063 -6.01023 -3.92051 1.00026 3.64392 -1.84451 0.799155 -1.84451 0.799155 -3.23992 -0.59626 -2.84434 -0.200681 -0.754621 1.88904 -2.84434 -3.23992 -0.200681 -0.59626 -0.603206 -3.44797 -1.57575 -4.42052 1.00026 -1.84451 -0.603206 -3.44797 -4.4478 -2.35808 -5.42035 -3.33063 -2.84434 -0.754621 -4.4478 -2.35808 -1.84451 -3.23992 -3.44797 -4.84338 -2.84434 -4.4478 -3.23992 -4.84338 -3.44797 -4.84338 -4.42052 -5.81593 -4.4478 -5.42035 -4.84338 -5.81593 0.209778 -0.295568 0.497745 -0.393919 -0.295568 -0.653644 -0.598251 -0.653644 -0.295568 -0.598251 -0.393919 -0.935317 -1.28193 -0.393919 -1.93193 -0.935317 -1.28193 -1.93193 -3.33063 -3.92051 1.04857 -0.653644 0.209778 -0.653644 1.04857 2.46483 -0.653644 -0.653644 1.04857 1.97225 2.46483 4.44089 1.53726 -0.754621 4.44112 1.88904 1.53726 4.44112 1.97225 4.44089 -0.218104 -1.28193 -2.35808 -3.33063 1.53726 -0.218104 -0.754621 -2.35808 -0.218104 0.497745 -1.28193 -0.393919 1.04857 0.209778 1.97225 0.497745 1.53726 1.97225 -0.218104 0.497745 0.209778 -0.653644 -0.295568 -0.653644 
SCALARS phi_n double 1
LOOKUP_TABLE default