# vtk DataFile Version 3.0
vtk output
ASCII
DATASET UNSTRUCTURED_GRID
POINTS 156 double
6.1232339957e-17 -1.4997597827e-32 1 6.1232339957e-17 -1.4997597827e-32 -1 0.30901699437 -7.5687334609e-17 -0.9510565163 
0.58778525229 -1.4396586556e-16 -0.80901699437 0.80901699437 -1.9815201452e-16 -0.58778525229 0.9510565163 -2.329416637e-16 -0.30901699437 
1 -2.4492935983e-16 -2.4492935983e-16 0.9510565163 -2.329416637e-16 0.30901699437 0.80901699437 -1.9815201452e-16 0.58778525229 
0.58778525229 -1.4396586556e-16 0.80901699437 0.30901699437 -7.5687334609e-17 0.9510565163 0.35692701925 0.28055387501 -0.89100652419 
0.43715291029 0.27343293052 0.85681489572 0.9509980539 -0.26748511457 -0.15509485792 0.70103262637 -0.26420858073 0.66237986279 
0.45572305921 -0.28040558221 -0.84480128005 0.85796047808 0.2698172279 0.43715269824 0.85796047808 0.2698172279 -0.43715269824 
0.15063255405 -0.2698172279 0.9510565163 0.68088129051 0.2698172279 0.68088129051 0.62125810762 0.29960973811 -0.7240665498 
0.95035834863 -0.26966638213 0.15523869213 0.84565052923 -0.53373674414 -0.00051998006677 0.8186312096 -0.49915524456 -0.28405454493 
0.79094344728 -0.54594034683 0.2763287913 0.6301201348 -0.76790514454 0.11519680857 0.51613224973 -0.78600209656 0.34030604607 
0.13966630283 -0.26304869254 -0.95461966731 0.45146317401 -0.27648259655 0.84837396018 0.095985529982 -0.61652273076 0.78146433091 
0.95624269159 0.26052007662 0.13315105876 0.84162811523 0.532292767 0.091249799227 0.43773653941 0.60743615302 -0.66287860282 
0.38184527774 -0.89703847563 0.22252226204 0.25748615311 -0.59494578843 -0.76140684905 0.54314361473 0.58790896649 0.59946481206 
0.26560728169 0.5935303203 0.75972003448 0.4243752711 -0.90494451096 -0.031321898931 0.5394317613 -0.52620104209 -0.6573627904 
0.33292898685 -0.7791205923 -0.53115853789 0.85338997361 0.48632974394 -0.1876404357 0.66031634165 0.75030148871 0.032093690704 
0.68477188575 0.68064456067 -0.26040439036 0.42184584339 0.90663444847 0.0077499200502 0.35490412722 0.89609988855 0.26654840127 
0.07082115178 -0.99415735591 0.081458677543 0.17751100148 -0.93748646103 0.29934759018 -0.26407538334 -0.52469353333 0.80929653898 
-0.15879096853 -0.22696916265 0.96086962046 0.093213783366 0.77527890709 0.62470297487 0.016608095172 0.8988442143 0.4379534788 
-0.3673709884 0.77906092033 0.50803802937 -0.43355386021 0.85236008885 0.29242662197 -0.4409270868 0.8945992959 0.072631975743 
-0.54590430991 -0.30549531976 0.78016735001 0.033640309541 -0.81930775786 -0.57236625293 -0.70479524105 0.64424042968 0.29701504501 
-0.66552872918 0.53824808305 0.51706915566 -0.89074536956 0.38634355696 0.23939787508 -0.86085259933 0.50854809439 0.017653269328 
-0.95058969406 0.29962173109 -0.081277621782 -0.88816918457 0.40655736511 -0.21416490946 -0.96683291529 0.10836167036 -0.23128307832 
-0.87759073669 0.32171803458 -0.35543213854 -0.99469288967 -0.096995759301 -0.034320226028 -0.93532632524 -0.30070393423 -0.18639154824 
0.13585446214 0.63804736085 -0.75791762773 -0.90456403491 -0.42563817395 -0.024414168571 -0.80842056702 -0.5224469594 -0.27111872202 
-0.77460509659 -0.40375542417 -0.48679410615 -0.91890346061 -0.34808244234 0.18562069771 -0.75188282405 -0.62899718962 0.19757214972 
-0.74122569968 0.54684328648 -0.3892902287 -0.64881816522 0.49112758554 -0.58123031856 -0.5108182091 0.67091392799 -0.53753070468 
0.060539369601 0.83953596778 -0.53992068264 -0.23952117705 0.9688435836 0.063021553941 -0.54984230611 0.42527416595 0.71889868701 
-0.55468728381 -0.6292124883 -0.54443885032 -0.6115793378 -0.73233789295 -0.29941931153 -0.042219365372 -0.98853181847 -0.14499092753 
-0.71778765347 0.034389872931 0.69541226705 -0.1264562264 -0.9162247787 0.38018545172 -0.81778771662 -0.42021597535 0.39324519655 
-0.23797820311 -0.9600208389 0.14739865578 -0.43518811384 -0.79827891571 0.41636772007 -0.49825359885 0.42448301744 -0.7560142321 
-0.60618890108 0.057807380203 -0.79321707181 -0.081639275261 0.52516175403 0.84707742316 -0.39159747204 0.90822772153 -0.14755956674 
-0.15204962326 0.98400424933 -0.092825370258 -0.39972806082 -0.78147239415 -0.47908075998 0.37586154699 0.7855567807 0.49155736368 
-0.26219615403 0.32461184776 -0.90877958005 -0.35850800969 -0.11734660577 -0.92612190402 -0.51302030968 0.089161300949 0.85373322781 
-0.012909601382 -0.81155897509 0.58412787311 0.37752436743 0.85881962301 -0.34627186881 -0.68049564688 -0.29377087142 -0.67128559472 
-0.93815095154 -0.061147218516 0.34078411024 -0.62735178619 0.7607961923 -0.16618932018 -0.29747926426 0.72595960534 -0.62007155938 
0.12445375053 -0.92034190008 -0.37078572106 0.1080085996 0.99349072216 0.036198444682 -0.37994475003 -0.86784605425 -0.32013311769 
-0.58944545022 -0.80562930589 -0.059291506228 0.17544925059 0.95154371213 0.25255123118 0.60776043179 -0.67524358497 -0.41793941966 
0.14838087382 0.96411039738 -0.22016870339 -0.62650018181 -0.49419014799 0.60272184282 -0.35307030293 -0.70336954039 0.61693812561 
0.85271045398 -0.2459350608 0.46086964268 0.69604486968 -0.23710085643 -0.67772023968 0.73835529496 -0.43566233384 -0.51481044014 
0.67607830134 0.52811367628 -0.51382300006 0.2926100169 -0.82119750145 0.48991227953 0.73910422292 0.56718029063 0.363361343 
0.64766946192 -0.746559018 -0.152229763 0.39166556172 -0.87634759704 -0.28038005801 0.5567888808 0.77701165933 0.29366481485 
-0.2498414566 0.68212663633 0.68722812702 0.17022616044 -0.96481952767 -0.20036549935 -0.79445252196 -0.60620226173 -0.036932481965 
-0.039212236021 -0.62928993692 -0.77618076235 -0.39694079459 -0.5931849653 -0.70040674078 -0.98391156262 0.13178569633 0.12062573181 
-0.91713693308 -0.13055573097 -0.37658338664 -0.13288189586 0.61134455044 -0.78012834995 -0.68297372599 0.72806982673 0.058832108668 
0.8661092531 -0.2422987089 -0.4372025816 0.41253613198 -0.61163727459 0.67506576283 -0.52438626751 -0.83193920042 0.18137312165 
0.95297397847 0.25642344745 -0.16151659965 -0.058645930724 0.94985767707 -0.30713359979 -0.30985535781 -0.36547823986 -0.87773305362 
-0.32427084113 -0.9410701783 -0.096100682125 0.090586248778 0.19055289501 0.97748847857 -0.19732010261 0.087994981124 0.97638192343 
-0.32957882985 0.87028158797 -0.36604337523 0.14981813642 0.30473448385 -0.94058036358 -0.81968861471 -0.26160124584 0.50958351925 
-0.13815627143 -0.9256357776 -0.35229426889 -0.384935748 0.32248893912 0.86476895993 0.64473522991 -0.57548379852 0.50312511461 
-0.57703210333 -0.22853156585 -0.78409647056 -0.050227768849 -0.28926802394 -0.95592948567 -0.81622329335 0.10108802776 -0.56882400269 
-0.85826349038 0.24118035282 0.45300752587 -0.80225895908 0.56573166349 -0.19059970486 -0.56499467468 0.73245626939 -0.37985369686 
-0.68862787339 -0.60174665702 0.40458943728 -0.16119213204 0.96468963671 0.20830506807 0.81102174972 0.43784235905 -0.38799199747 
0.27115029859 0.87128745834 0.40906684113 -0.23639668513 -0.81279502496 -0.53242920156 -0.41564268917 -0.038086359829 0.90873020426 

CELLS 154 770
4 122 105 131 71 
4 46 33 26 115 
4 153 92 119 44 
4 17 4 3 20 
4 43 103 106 44 
4 20 3 2 11 
4 1 94 93 139 
4 103 43 97 108 
4 97 75 133 108 
4 139 93 127 66 
4 29 47 110 96 
4 85 82 96 110 
4 133 138 89 90 
4 19 35 36 12 
4 141 102 121 80 
4 149 72 148 100 
4 140 81 147 99 
4 35 92 49 36 
4 139 66 32 11 
4 66 75 97 32 
4 51 52 56 57 
4 53 76 90 89 
4 27 2 3 15 
4 60 61 63 62 
4 73 74 101 86 
4 27 15 38 34 
4 39 55 123 34 
4 28 14 8 9 
4 70 64 65 67 
4 86 93 94 87 
4 111 21 6 7 
4 12 9 8 19 
4 124 78 69 98 
4 69 78 79 68 
4 104 79 78 91 
4 150 83 70 71 
4 115 96 82 46 
4 82 84 45 46 
4 46 45 37 33 
4 37 25 26 33 
4 97 43 41 42 
4 42 41 31 40 
4 111 24 22 21 
4 5 6 21 13 
4 144 98 146 87 
4 77 120 51 57 
4 48 47 29 18 
4 23 13 21 22 
4 42 114 32 97 
4 141 80 135 104 
4 7 16 19 8 
4 68 65 126 69 
4 116 16 30 31 
4 43 44 119 41 
4 124 134 145 123 
4 101 127 93 86 
4 102 141 154 55 
4 124 123 55 154 
4 12 36 88 136 
4 64 62 126 65 
4 16 7 6 30 
4 11 32 114 20 
4 10 0 48 18 
4 130 28 18 29 
4 9 10 18 28 
4 107 23 22 117 
4 62 64 125 60 
4 64 70 99 125 
4 24 25 117 22 
4 89 100 128 53 
4 80 121 37 45 
4 4 17 132 5 
4 110 109 150 85 
4 118 117 25 37 
4 35 19 16 116 
4 101 75 66 127 
4 96 115 130 29 
4 70 67 122 71 
4 105 122 68 79 
4 90 76 151 103 
4 103 108 133 90 
4 65 68 122 67 
4 70 83 140 99 
4 53 128 56 52 
4 31 30 132 40 
4 34 38 107 39 
4 20 114 152 17 
4 58 56 128 59 
4 59 60 125 58 
4 41 119 116 31 
4 77 142 88 120 
4 55 39 118 102 
4 45 84 135 80 
4 50 51 120 49 
4 86 87 146 73 
4 13 129 4 5 
4 7 8 14 111 
4 131 105 135 84 
4 30 6 5 132 
4 82 85 131 84 
4 63 61 148 72 
4 15 3 4 112 
4 73 72 149 74 
4 23 107 38 113 
4 109 110 47 54 
4 15 112 113 38 
4 9 12 136 10 
4 79 104 135 105 
4 99 147 58 125 
4 49 92 153 50 
4 44 106 50 153 
4 25 24 143 26 
4 51 50 151 52 
4 36 49 120 88 
4 77 57 147 81 
4 72 73 146 63 
4 100 148 59 128 
4 103 151 50 106 
4 75 101 138 133 
4 155 48 0 137 
4 115 26 143 130 
4 117 118 39 107 
4 2 27 145 1 
4 60 59 148 61 
4 62 63 146 126 
4 53 52 151 76 
4 56 58 147 57 
4 114 42 40 152 
4 4 129 113 112 
4 17 152 40 132 
4 140 83 150 109 
4 136 88 142 137 
4 81 54 155 95 
4 11 2 1 139 
4 81 95 142 77 
4 47 48 155 54 
4 37 121 102 118 
4 69 126 146 98 
4 13 23 113 129 
4 134 94 1 145 
4 87 94 134 144 
4 34 123 145 27 
4 10 136 137 0 
4 35 116 119 92 
4 104 91 154 141 
4 100 89 138 149 
4 24 111 14 143 
4 78 124 154 91 
4 71 131 85 150 
4 81 140 109 54 
4 124 98 144 134 
4 101 74 149 138 
4 28 130 143 14 
4 155 137 142 95 

CELL_TYPES 154
9
9
9
9
9
9
9
9
9
9
9
9
9
9
9
9
9
9
9
9
9
9
9
9
9
9
9
9
9
9
9
9
9
9
9
9
9
9
9
9
9
9
9
9
9
9
9
9
9
9
9
9
9
9
9
9
9
9
9
9
9
9
9
9
9
9
9
9
9
9
9
9
9
9
9
9
9
9
9
9
9
9
9
9
9
9
9
9
9
9
9
9
9
9
9
9
9
9
9
9
9
9
9
9
9
9
9
9
9
9
9
9
9
9
9
9
9
9
9
9
9
9
9
9
9
9
9
9
9
9
9
9
9
9
9
9
9
9
9
9
9
9
9
9
9
9
9
9
9
9
9
9
9
9

CELL_DATA 154
FIELD FieldData 2
MaterialID 1 154 int
1 1 1 1 1 1 1 1 1 
1 1 1 1 1 1 1 1 1 
1 1 1 1 1 1 1 1 1 
1 1 1 1 1 1 1 1 1 
1 1 1 1 1 1 1 1 1 
1 1 1 1 1 1 1 1 1 
1 1 1 1 1 1 1 1 1 
1 1 1 1 1 1 1 1 1 
1 1 1 1 1 1 1 1 1 
1 1 1 1 1 1 1 1 1 
1 1 1 1 1 1 1 1 1 
1 1 1 1 1 1 1 1 1 
1 1 1 1 1 1 1 1 1 
1 1 1 1 1 1 1 1 1 
1 1 1 1 1 1 1 1 1 
1 1 1 1 1 1 1 1 1 
1 1 1 1 1 1 1 1 1 
1 
ManifoldID 1 154 int
0 0 0 0 0 0 0 0 0 
0 0 0 0 0 0 0 0 0 
0 0 0 0 0 0 0 0 0 
0 0 0 0 0 0 0 0 0 
0 0 0 0 0 0 0 0 0 
0 0 0 0 0 0 0 0 0 
0 0 0 0 0 0 0 0 0 
0 0 0 0 0 0 0 0 0 
0 0 0 0 0 0 0 0 0 
0 0 0 0 0 0 0 0 0 
0 0 0 0 0 0 0 0 0 
0 0 0 0 0 0 0 0 0 
0 0 0 0 0 0 0 0 0 
0 0 0 0 0 0 0 0 0 
0 0 0 0 0 0 0 0 0 
0 0 0 0 0 0 0 0 0 
0 0 0 0 0 0 0 0 0 
0 
