# vtk DataFile Version 3.0
vtk output
ASCII
DATASET UNSTRUCTURED_GRID
POINTS 118 double
8 -1.9594348786e-15 -4.8985871966e-16 7.6445824463 2.3580413953 -4.8985871966e-16 6.6099101945 4.5065604645 -4.8985871966e-16 
4.9879184149 6.2546518597 -4.8985871966e-16 2.9227281949 7.4469899892 -4.8985871966e-16 0.59784074869 7.9776303774 -4.8985871966e-16 
-1.7801674717 7.7994232975 -4.8985871966e-16 -4 6.9282032303 -4.8985871966e-16 -5.8644149746 5.4413819022 -4.8985871966e-16 
-7.2077509432 3.4710699129 -4.8985871966e-16 -7.9106466098 1.1923381294 -4.8985871966e-16 -7.9106466098 -1.1923381294 -4.8985871966e-16 
-7.2077509432 -3.4710699129 -4.8985871966e-16 -5.8644149746 -5.4413819022 -4.8985871966e-16 -4 -6.9282032303 -4.8985871966e-16 
-1.7801674717 -7.7994232975 -4.8985871966e-16 0.59784074869 -7.9776303774 -4.8985871966e-16 2.9227281949 -7.4469899892 -4.8985871966e-16 
4.9879184149 -6.2546518597 -4.8985871966e-16 6.6099101945 -4.5065604645 -4.8985871966e-16 7.6445824463 -2.3580413953 -4.8985871966e-16 
7.2469796037 -1.774998075e-15 1.5636629649 5.5549581321 -1.3605723392e-15 1.9498558244 4.1980622642 -1.0282287029e-15 0.86776747824 
4.1980622642 -1.0282287029e-15 -0.86776747824 5.5549581321 -1.3605723392e-15 -1.9498558244 7.2469796037 -1.774998075e-15 -1.5636629649 
-7.0251846575 -2.4098132638e-14 1.7172642249 4.6704743618 1.4662401363 -1.6671724182 4.6704743618 -1.4662401363 -1.6671724182 
3.4429861343 -5.9634269144 1.7930569258 3.4429861343 5.9634269144 1.7930569258 -2.6597982091 -6.4206890579 -1.7600774183 
-2.7108177664 6.4707370331 -1.7229362294 6.4349968442 1.4952178969 1.9058457 6.4349968442 -1.4952178969 1.9058457 
-5.6894572872 -3.8790062982 1.7930569258 -5.6894572872 3.8790062982 1.7930569258 1.599226919 -6.7577993197 -1.7629563824 
1.60790609 6.7520978332 -1.7648496826 4.8994213532 -4.942568613 -1.7548625526 5.4095630803 4.7969452671 -1.5769918281 
3.7600185729 -1.3833258602 -0.16001061945 4.5433563969 -1.8339585671 1.6700262275 6.0496999729 -2.8796528768 1.873463973 
2.9970391191 -2.6501079095 -0.051546528528 4.1151344839 -2.9620612195 -1.7707890675 1.5663103216 -3.7855954411 -0.6147883955 
-0.43662395327 -6.9461448041 -1.7546168361 -0.56829010694 -5.0225239747 -1.7624319524 -2.8828440179 -4.1991969909 -1.7827819917 
-6.5800478413 2.029675957 -1.7930569258 -1.7701210046 -3.631655585 0.39839133598 -3.9219365944 -1.6372943104 -0.96820741444 
-0.51458935207 -6.8667176936 1.7930569258 3.215001132 -4.6001489136 -1.9620569218 3.628058035 -6.3817434446 -1.4838699325 
-0.17452302913 -3.9966027375 -0.040566126453 -5.4527327717 -4.0467648349 -1.8372197209 6.2990167107 1.5116796932 -1.9420713688 
3.733179388 1.4498513196 0.13897316749 4.1595449081 2.9028078834 -1.7718213205 3.0374546548 2.6068310181 -0.1041073524 
4.8118373773 2.3287244608 1.8899522281 1.6828711811 3.7717073421 -0.70959272448 -0.51458935207 6.8667176936 1.7930569258 
6.4760529138 -1.4287768529 -1.8975876569 -1.4265010941 -5.0820259238 1.8653005788 3.8660591894 6.2067627857 -1.5092261019 
-6.4114944704 -2.2043584326 -1.8416903816 -4.6294516783 0.45458708335 -1.4772045568 -4.3988977014 -0.45618821234 1.2294140654 
-3.9746350491 0.92032147325 0.55929167578 -3.3177557169 -2.8934983987 1.2029988191 -3.3962967914 -4.7584630209 1.9940759575 
6.0577268082 -3.1217250316 -1.8265087387 -0.47712925538 7.0042768098 -1.7200469405 -0.52470524864 5.1326650798 -1.8147775047 
-3.004534262 4.431989043 -1.8929392927 -1.8735378146 3.534534849 0.039243451307 -4.3015669364 2.3320966669 -1.6657461576 
-5.5107555244 3.9784396194 -1.8344261695 -4.1024695967 3.2249967604 1.8409171544 -4.0661459685 5.6284129324 1.7634499473 
-5.1495374709 1.5985603949 1.9053283058 -7.1081492736 2.0335226205 1.4348147449 1.7023722528 6.9485667556 1.6334421122 
0.41344766879 4.9743119005 1.7270947125 1.3961816973 -6.8252677946 1.7509061074 2.0466394588 -4.6141104246 1.7586998733 
0.87049443438 -5.1121768529 -1.8267496156 -4.4397881606 5.6296103012 -1.6223013868 5.3710774674 4.670378604 1.6585727332 
-4.3976589399 -5.6687295651 -1.6187885227 -2.8127722534 -6.5382888982 1.6585727332 -6.8687530938 -1.9965435583 1.6341673565 
4.0765436102 -3.994265628 1.9784539818 5.7473847693 -4.566175399 1.4843046629 6.6353223619 3.2386719753 1.4442464416 
-2.1241935921 4.9821463506 1.9128626972 3.3734835085 4.5751908103 -1.9749472264 -0.16002151526 4.0034398756 -0.16279678312 
-2.5583265424 6.7474203782 1.5877647074 -7.1254785086 -0.021188313164 -1.6532474752 2.2186204969 4.3656361562 1.6683799538 
0.9504227423 5.164634674 -1.8545981453 4.7124992582 1.0101373126 1.6144748649 -5.0704879814 -1.9478109142 1.9175719746 
-5.5117099927 0.3303287243 1.9419405829 3.691612329 3.4198774353 1.7502755208 0.40492630839 -4.9904320639 1.735977958 
7.7291886908 1.1776756418 -0.83273338461 7.7291886908 1.1776756418 0.83273338461 7.7042273975 -1.1612254392 0.88962141036 
6.8965720746 -2.8505382016 1.3642644812 6.0893359785 3.1194912353 -1.8141798052 -4.6384386561 -5.7326504144 1.4531534013 
-3.251496279 2.3539733265 0.23750538303 
CELLS 121 599
3 63 60 106 
3 106 34 63 
3 0 26 111 
3 111 1 0 
3 0 21 113 
3 113 20 0 
4 66 20 19 75 
4 87 99 79 101 
4 8 81 51 9 
4 11 69 58 12 
4 104 31 86 87 
4 61 100 41 115 
4 103 51 80 70 
4 63 98 92 109 
4 64 104 87 101 
4 35 22 23 43 
4 47 89 96 45 
4 69 53 50 58 
4 63 34 112 98 
4 35 43 96 44 
4 75 19 18 40 
4 55 46 75 40 
4 99 83 37 82 
4 16 38 56 17 
4 43 23 24 42 
4 2 41 68 3 
4 39 105 77 76 
4 81 8 7 91 
4 103 70 53 69 
4 15 48 38 16 
4 37 83 7 8 
4 116 36 12 13 
4 6 33 91 7 
4 4 39 76 5 
4 53 70 72 71 
4 101 79 78 77 
4 14 32 48 15 
4 73 52 50 53 
4 57 49 50 52 
4 49 90 38 48 
4 99 87 86 65 
4 31 92 2 3 
4 17 18 97 30 
4 13 93 32 14 
4 15 16 88 54 
4 28 24 23 60 
4 25 29 42 24 
4 45 46 55 47 
4 3 68 39 4 
4 12 58 93 13 
4 52 73 74 67 
4 38 55 40 56 
4 0 1 98 112 
4 28 60 62 61 
4 96 43 42 45 
4 49 57 47 90 
4 89 30 97 96 
4 39 100 64 105 
4 54 94 14 15 
4 39 68 41 100 
4 65 86 4 5 
4 79 117 80 78 
4 50 49 48 32 
4 110 88 30 89 
4 3 4 86 31 
4 16 17 30 88 
4 78 33 76 77 
4 92 31 104 109 
4 45 42 29 46 
4 5 76 33 6 
4 36 95 11 12 
4 85 27 108 84 
4 69 11 10 103 
4 29 25 26 66 
4 9 51 103 10 
4 5 6 102 65 
4 41 2 1 115 
4 83 99 65 102 
4 88 110 67 54 
4 21 34 106 22 
4 114 97 18 19 
4 40 18 17 56 
4 60 63 109 62 
4 46 29 66 75 
4 25 59 111 26 
4 24 28 59 25 
4 47 57 110 89 
4 1 2 92 98 
4 10 11 95 27 
4 51 81 78 80 
4 6 7 83 102 
4 8 9 85 37 
4 74 73 107 36 
4 114 44 96 97 
4 62 64 100 61 
4 27 107 71 108 
4 38 90 47 55 
4 61 115 59 28 
4 27 85 9 10 
4 54 67 74 94 
4 60 23 22 106 
4 58 50 32 93 
4 52 67 110 57 
4 64 62 109 104 
4 22 35 113 21 
4 82 37 85 84 
4 113 35 44 114 
4 34 21 0 112 
4 53 71 107 73 
4 99 82 117 79 
4 27 95 36 107 
4 84 72 117 82 
4 71 72 84 108 
4 19 20 113 114 
4 13 14 94 116 
4 70 80 117 72 
4 33 78 81 91 
4 59 115 1 111 
4 36 116 94 74 
4 77 105 64 101 
4 26 0 20 66 

CELL_TYPES 121
5
5
5
5
5
5
9
9
9
9
9
9
9
9
9
9
9
9
9
9
9
9
9
9
9
9
9
9
9
9
9
9
9
9
9
9
9
9
9
9
9
9
9
9
9
9
9
9
9
9
9
9
9
9
9
9
9
9
9
9
9
9
9
9
9
9
9
9
9
9
9
9
9
9
9
9
9
9
9
9
9
9
9
9
9
9
9
9
9
9
9
9
9
9
9
9
9
9
9
9
9
9
9
9
9
9
9
9
9
9
9
9
9
9
9
9
9
9
9
9
9

CELL_DATA 121
FIELD FieldData 2
MaterialID 1 121 int
1 1 1 1 1 1 1 1 1 
1 1 1 1 1 1 1 1 1 
1 1 1 1 1 1 1 1 1 
1 1 1 1 1 1 1 1 1 
1 1 1 1 1 1 1 1 1 
1 1 1 1 1 1 1 1 1 
1 1 1 1 1 1 1 1 1 
1 1 1 1 1 1 1 1 1 
1 1 1 1 1 1 1 1 1 
1 1 1 1 1 1 1 1 1 
1 1 1 1 1 1 1 1 1 
1 1 1 1 1 1 1 1 1 
1 1 1 1 1 1 1 1 1 
1 1 1 1 
ManifoldID 1 121 int
0 0 0 0 0 0 0 0 0 
0 0 0 0 0 0 0 0 0 
0 0 0 0 0 0 0 0 0 
0 0 0 0 0 0 0 0 0 
0 0 0 0 0 0 0 0 0 
0 0 0 0 0 0 0 0 0 
0 0 0 0 0 0 0 0 0 
0 0 0 0 0 0 0 0 0 
0 0 0 0 0 0 0 0 0 
0 0 0 0 0 0 0 0 0 
0 0 0 0 0 0 0 0 0 
0 0 0 0 0 0 0 0 0 
0 0 0 0 0 0 0 0 0 
0 0 0 0 
