# vtk DataFile Version 3.0
#This file was generated by the deal.II library on 2025/2/17 at 13:53:33
ASCII
DATASET UNSTRUCTURED_GRID

POINTS 616 double
-0.524386 -0.831939 0.181373
-0.751883 -0.628997 0.197572
-0.589445 -0.805629 -0.0592915
-0.794453 -0.606202 -0.0369325
0.29261 -0.821198 0.489912
0.177511 -0.937486 0.299348
0.516132 -0.786002 0.340306
0.381845 -0.897038 0.222522
0.375862 0.785557 0.491557
0.556789 0.777012 0.293665
0.27115 0.871287 0.409067
0.354904 0.8961 0.266548
0.587785 -1.43966e-16 -0.809017
0.621258 0.29961 -0.724067
0.809017 -1.98152e-16 -0.587785
0.85796 0.269817 -0.437153
0.175449 0.951544 0.252551
0.354904 0.8961 0.266548
0.108009 0.993491 0.0361984
0.421846 0.906634 0.00774992
0.587785 -1.43966e-16 -0.809017
0.309017 -7.56873e-17 -0.951057
0.621258 0.29961 -0.724067
0.356927 0.280554 -0.891007
-0.358508 -0.117347 -0.926122
-0.262196 0.324612 -0.90878
6.12323e-17 -1.49976e-32 -1
0.149818 0.304734 -0.94058
0.108009 0.993491 0.0361984
0.421846 0.906634 0.00774992
0.148381 0.96411 -0.220169
0.377524 0.85882 -0.346272
0.148381 0.96411 -0.220169
0.377524 0.85882 -0.346272
-0.0586459 0.949858 -0.307134
0.0605394 0.839536 -0.539921
-0.262196 0.324612 -0.90878
-0.132882 0.611345 -0.780128
0.149818 0.304734 -0.94058
0.135854 0.638047 -0.757918
-0.35307 -0.70337 0.616938
-0.0129096 -0.811559 0.584128
-0.264075 -0.524694 0.809297
0.0959855 -0.616523 0.781464
-0.35307 -0.70337 0.616938
-0.435188 -0.798279 0.416368
-0.0129096 -0.811559 0.584128
-0.126456 -0.916225 0.380185
-0.391597 0.908228 -0.14756
-0.15205 0.984004 -0.0928254
-0.329579 0.870282 -0.366043
-0.0586459 0.949858 -0.307134
0.437153 0.273433 0.856815
0.680881 0.269817 0.680881
0.265607 0.59353 0.75972
0.543144 0.587909 0.599465
-0.0422194 -0.988532 -0.144991
-0.138156 -0.925636 -0.352294
0.170226 -0.96482 -0.200365
0.124454 -0.920342 -0.370786
-0.802259 0.565732 -0.1906
-0.627352 0.760796 -0.166189
-0.741226 0.546843 -0.38929
-0.564995 0.732456 -0.379854
-0.819689 -0.261601 0.509584
-0.717788 0.0343899 0.695412
-0.938151 -0.0611472 0.340784
-0.858263 0.24118 0.453008
0.0932138 0.775279 0.624703
0.265607 0.59353 0.75972
0.375862 0.785557 0.491557
0.543144 0.587909 0.599465
0.356927 0.280554 -0.891007
0.149818 0.304734 -0.94058
0.437737 0.607436 -0.662879
0.135854 0.638047 -0.757918
0.437737 0.607436 -0.662879
0.135854 0.638047 -0.757918
0.377524 0.85882 -0.346272
0.0605394 0.839536 -0.539921
-0.665529 0.538248 0.517069
-0.367371 0.779061 0.508038
-0.704795 0.64424 0.297015
-0.433554 0.85236 0.292427
-0.440927 0.894599 0.072632
-0.239521 0.968844 0.0630216
-0.391597 0.908228 -0.14756
-0.15205 0.984004 -0.0928254
0.455723 -0.280406 -0.844801
0.139666 -0.263049 -0.95462
0.587785 -1.43966e-16 -0.809017
0.309017 -7.56873e-17 -0.951057
-0.95059 0.299622 -0.0812776
-0.888169 0.406557 -0.214165
-0.966833 0.108362 -0.231283
-0.877591 0.321718 -0.355432
-0.648818 0.491128 -0.58123
-0.510818 0.670914 -0.537531
-0.498254 0.424483 -0.756014
-0.297479 0.72596 -0.620072
0.539432 -0.526201 -0.657363
0.257486 -0.594946 -0.761407
0.455723 -0.280406 -0.844801
0.139666 -0.263049 -0.95462
0.257486 -0.594946 -0.761407
0.332929 -0.779121 -0.531159
-0.0392122 -0.62929 -0.776181
0.0336403 -0.819308 -0.572366
0.451463 -0.276483 0.848374
0.701033 -0.264209 0.66238
0.587785 -1.43966e-16 0.809017
0.809017 -1.98152e-16 0.587785
-0.918903 -0.348082 0.185621
-0.994693 -0.0969958 -0.0343202
-0.904564 -0.425638 -0.0244142
-0.935326 -0.300704 -0.186392
-0.358508 -0.117347 -0.926122
-0.606189 0.0578074 -0.793217
-0.262196 0.324612 -0.90878
-0.498254 0.424483 -0.756014
0.85271 -0.245935 0.46087
0.950358 -0.269666 0.155239
0.951057 -2.32942e-16 0.309017
1 -2.44929e-16 -2.44929e-16
0.587785 -1.43966e-16 0.809017
0.809017 -1.98152e-16 0.587785
0.437153 0.273433 0.856815
0.680881 0.269817 0.680881
-0.554687 -0.629212 -0.544439
-0.774605 -0.403755 -0.486794
-0.396941 -0.593185 -0.700407
-0.680496 -0.293771 -0.671286
-0.611579 -0.732338 -0.299419
-0.808421 -0.522447 -0.271119
-0.554687 -0.629212 -0.544439
-0.774605 -0.403755 -0.486794
-0.611579 -0.732338 -0.299419
-0.554687 -0.629212 -0.544439
-0.379945 -0.867846 -0.320133
-0.399728 -0.781472 -0.479081
-0.688628 -0.601747 0.404589
-0.817788 -0.420216 0.393245
-0.751883 -0.628997 0.197572
-0.918903 -0.348082 0.185621
-0.0129096 -0.811559 0.584128
-0.126456 -0.916225 0.380185
0.29261 -0.821198 0.489912
0.177511 -0.937486 0.299348
-0.126456 -0.916225 0.380185
-0.237978 -0.960021 0.147399
0.177511 -0.937486 0.299348
0.0708212 -0.994157 0.0814587
0.177511 -0.937486 0.299348
0.0708212 -0.994157 0.0814587
0.381845 -0.897038 0.222522
0.424375 -0.904945 -0.0313219
0.516132 -0.786002 0.340306
0.381845 -0.897038 0.222522
0.63012 -0.767905 0.115197
0.424375 -0.904945 -0.0313219
0.660316 0.750301 0.0320937
0.684772 0.680645 -0.260404
0.421846 0.906634 0.00774992
0.377524 0.85882 -0.346272
0.660316 0.750301 0.0320937
0.841628 0.532293 0.0912498
0.684772 0.680645 -0.260404
0.85339 0.48633 -0.18764
0.790943 -0.54594 0.276329
0.845651 -0.533737 -0.00051998
0.85271 -0.245935 0.46087
0.950358 -0.269666 0.155239
0.950358 -0.269666 0.155239
0.950998 -0.267485 -0.155095
1 -2.44929e-16 -2.44929e-16
0.951057 -2.32942e-16 -0.309017
-0.680496 -0.293771 -0.671286
-0.816223 0.101088 -0.568824
-0.577032 -0.228532 -0.784096
-0.606189 0.0578074 -0.793217
-0.549842 0.425274 0.718899
-0.249841 0.682127 0.687228
-0.665529 0.538248 0.517069
-0.367371 0.779061 0.508038
-0.264075 -0.524694 0.809297
0.0959855 -0.616523 0.781464
-0.158791 -0.226969 0.96087
0.150633 -0.269817 0.951057
0.845651 -0.533737 -0.00051998
0.818631 -0.499155 -0.284055
0.950358 -0.269666 0.155239
0.950998 -0.267485 -0.155095
0.676078 0.528114 -0.513823
0.437737 0.607436 -0.662879
0.684772 0.680645 -0.260404
0.377524 0.85882 -0.346272
-0.324271 -0.94107 -0.0961007
-0.379945 -0.867846 -0.320133
-0.0422194 -0.988532 -0.144991
-0.138156 -0.925636 -0.352294
0.809017 -1.98152e-16 0.587785
0.951057 -2.32942e-16 0.309017
0.680881 0.269817 0.680881
0.85796 0.269817 0.437153
-0.808421 -0.522447 -0.271119
-0.935326 -0.300704 -0.186392
-0.774605 -0.403755 -0.486794
-0.917137 -0.130556 -0.376583
0.85796 0.269817 0.437153
0.956243 0.26052 0.133151
0.739104 0.56718 0.363361
0.841628 0.532293 0.0912498
0.556789 0.777012 0.293665
0.660316 0.750301 0.0320937
0.354904 0.8961 0.266548
0.421846 0.906634 0.00774992
-0.396941 -0.593185 -0.700407
-0.309855 -0.365478 -0.877733
-0.0392122 -0.62929 -0.776181
-0.0502278 -0.289268 -0.955929
-0.262196 0.324612 -0.90878
-0.498254 0.424483 -0.756014
-0.132882 0.611345 -0.780128
-0.297479 0.72596 -0.620072
-0.138156 -0.925636 -0.352294
-0.236397 -0.812795 -0.532429
0.124454 -0.920342 -0.370786
0.0336403 -0.819308 -0.572366
-0.396941 -0.593185 -0.700407
-0.0392122 -0.62929 -0.776181
-0.236397 -0.812795 -0.532429
0.0336403 -0.819308 -0.572366
0.0905862 0.190553 0.977488
0.437153 0.273433 0.856815
-0.0816393 0.525162 0.847077
0.265607 0.59353 0.75972
-0.994693 -0.0969958 -0.0343202
-0.966833 0.108362 -0.231283
-0.935326 -0.300704 -0.186392
-0.917137 -0.130556 -0.376583
0.951057 -2.32942e-16 0.309017
1 -2.44929e-16 -2.44929e-16
0.85796 0.269817 0.437153
0.956243 0.26052 0.133151
0.621258 0.29961 -0.724067
0.356927 0.280554 -0.891007
0.676078 0.528114 -0.513823
0.437737 0.607436 -0.662879
-0.158791 -0.226969 0.96087
0.150633 -0.269817 0.951057
6.12323e-17 -1.49976e-32 1
0.309017 -7.56873e-17 0.951057
0.0959855 -0.616523 0.781464
0.412536 -0.611637 0.675066
0.150633 -0.269817 0.951057
0.451463 -0.276483 0.848374
0.150633 -0.269817 0.951057
0.451463 -0.276483 0.848374
0.309017 -7.56873e-17 0.951057
0.587785 -1.43966e-16 0.809017
0.647669 -0.746559 -0.15223
0.60776 -0.675244 -0.417939
0.845651 -0.533737 -0.00051998
0.818631 -0.499155 -0.284055
-0.983912 0.131786 0.120626
-0.95059 0.299622 -0.0812776
-0.994693 -0.0969958 -0.0343202
-0.966833 0.108362 -0.231283
-0.938151 -0.0611472 0.340784
-0.983912 0.131786 0.120626
-0.918903 -0.348082 0.185621
-0.994693 -0.0969958 -0.0343202
0.63012 -0.767905 0.115197
0.647669 -0.746559 -0.15223
0.790943 -0.54594 0.276329
0.845651 -0.533737 -0.00051998
-0.682974 0.72807 0.0588321
-0.440927 0.894599 0.072632
-0.627352 0.760796 -0.166189
-0.391597 0.908228 -0.14756
0.0708212 -0.994157 0.0814587
-0.0422194 -0.988532 -0.144991
0.424375 -0.904945 -0.0313219
0.170226 -0.96482 -0.200365
0.809017 -1.98152e-16 -0.587785
0.85796 0.269817 -0.437153
0.951057 -2.32942e-16 -0.309017
0.952974 0.256423 -0.161517
-0.35307 -0.70337 0.616938
-0.6265 -0.49419 0.602722
-0.435188 -0.798279 0.416368
-0.688628 -0.601747 0.404589
0.63012 -0.767905 0.115197
0.424375 -0.904945 -0.0313219
0.647669 -0.746559 -0.15223
0.391666 -0.876348 -0.28038
0.680881 0.269817 0.680881
0.85796 0.269817 0.437153
0.543144 0.587909 0.599465
0.739104 0.56718 0.363361
-0.132882 0.611345 -0.780128
-0.297479 0.72596 -0.620072
0.135854 0.638047 -0.757918
0.0605394 0.839536 -0.539921
-0.0129096 -0.811559 0.584128
0.29261 -0.821198 0.489912
0.0959855 -0.616523 0.781464
0.412536 -0.611637 0.675066
-0.751883 -0.628997 0.197572
-0.918903 -0.348082 0.185621
-0.794453 -0.606202 -0.0369325
-0.904564 -0.425638 -0.0244142
-0.589445 -0.805629 -0.0592915
-0.794453 -0.606202 -0.0369325
-0.611579 -0.732338 -0.299419
-0.808421 -0.522447 -0.271119
-0.161192 0.96469 0.208305
0.108009 0.993491 0.0361984
-0.239521 0.968844 0.0630216
-0.15205 0.984004 -0.0928254
0.108009 0.993491 0.0361984
0.148381 0.96411 -0.220169
-0.15205 0.984004 -0.0928254
-0.0586459 0.949858 -0.307134
-0.794453 -0.606202 -0.0369325
-0.904564 -0.425638 -0.0244142
-0.808421 -0.522447 -0.271119
-0.935326 -0.300704 -0.186392
-0.819689 -0.261601 0.509584
-0.938151 -0.0611472 0.340784
-0.817788 -0.420216 0.393245
-0.918903 -0.348082 0.185621
-0.704795 0.64424 0.297015
-0.433554 0.85236 0.292427
-0.682974 0.72807 0.0588321
-0.440927 0.894599 0.072632
0.956243 0.26052 0.133151
0.952974 0.256423 -0.161517
0.841628 0.532293 0.0912498
0.85339 0.48633 -0.18764
0.539432 -0.526201 -0.657363
0.60776 -0.675244 -0.417939
0.257486 -0.594946 -0.761407
[...]
POINT_DATA 616
SCALARS phi double 1
LOOKUP_TABLE default
0.901311 0.882896 0.989454 0.995908 0.279958 0.731173 0.652575 0.851452 0.275114 0.741283 0.497993 0.786856 -0.963525 -0.572817 -0.0364745 0.426693 0.808654 0.786856 0.996069 0.99982 -0.963525 -1.71353 -0.572817 -1.38168 -1.57311 -1.47764 -2 -1.65407 0.996069 0.99982 0.854577 0.640287 0.854577 0.640287 0.717007 0.125457 -1.47764 -0.825801 -1.65407 -0.723317 -0.141838 -0.0236161 -0.964883 -0.83206 -0.141838 0.479914 -0.0236161 0.566377 0.934678 0.97415 0.598037 0.717007 -1.2024 -0.390798 -0.731524 -0.0780742 0.936933 0.627666 0.879561 0.587554 0.891015 0.917143 0.545359 0.567133 0.220974 -0.450795 0.651599 0.384353 -0.170761 -0.731524 0.275114 -0.0780742 -1.38168 -1.65407 -0.318224 -0.723317 -0.318224 -0.723317 0.640287 0.125457 0.197918 0.225692 0.735346 0.74346 0.984174 0.988085 0.934678 0.97415 -1.14107 -1.7339 -0.963525 -1.71353 0.980182 0.8624 0.839524 0.621004 -0.0134861 0.133182 -0.714673 -0.153466 -0.296378 -0.739221 -1.14107 -1.7339 -0.739221 0.153612 -0.80737 0.0171906 -1.15922 -0.316241 -0.963525 -0.0364745 0.896635 0.996466 0.998212 0.895775 -1.57311 -0.88758 -1.47764 -0.714673 0.362798 0.927703 0.713525 1 -0.963525 -0.0364745 -1.2024 -0.390798 0.110759 0.289095 -0.471709 -0.351873 0.731044 0.779484 0.110759 0.289095 0.731044 0.110759 0.692544 0.311445 0.508922 0.536075 0.882896 0.896635 -0.0236161 0.566377 0.279958 0.731173 0.566377 0.934821 0.731173 0.980093 0.731173 0.980093 0.851452 0.997057 0.652575 0.851452 0.960189 0.997057 0.99691 0.796569 0.99982 0.640287 0.99691 0.97502 0.796569 0.894373 0.770927 0.999999 0.362798 0.927703 0.927703 0.927837 1 0.713525 -0.351873 0.0293178 -0.844422 -0.88758 -0.550446 -0.416847 0.197918 0.225692 -0.964883 -0.83206 -1.76981 -1.71353 0.999999 0.757939 0.927703 0.927837 0.207958 -0.318224 0.796569 0.640287 0.972294 0.692544 0.936933 0.627666 -0.0364745 0.713525 -0.390798 0.426693 0.779484 0.895775 0.289095 0.574555 0.426693 0.946812 0.603906 0.97502 0.741283 0.99691 0.786856 0.99982 -0.471709 -1.31125 -0.80737 -1.7414 -1.47764 -0.714673 -0.825801 -0.153466 0.627666 0.149557 0.587554 0.0171906 -0.471709 -0.80737 0.149557 0.0171906 -1.86645 -1.2024 -1.15262 -0.731524 0.996466 0.839524 0.895775 0.574555 0.713525 1 0.426693 0.946812 -0.572817 -1.38168 0.207958 -0.318224 -1.76981 -1.71353 -2 -1.71353 -0.83206 -0.367141 -1.71353 -1.15922 -1.71353 -1.15922 -1.71353 -0.963525 0.930478 0.47598 0.999999 0.757939 0.956348 0.980182 0.996466 0.839524 0.651599 0.956348 0.896635 0.996466 0.960189 0.930478 0.770927 0.999999 0.989616 0.984174 0.917143 0.934678 0.980093 0.936933 0.997057 0.879561 -0.0364745 0.426693 0.713525 0.921737 -0.141838 -0.0898209 0.479914 0.508922 0.960189 0.997057 0.930478 0.764161 -0.390798 0.426693 -0.0780742 0.603906 -0.825801 -0.153466 -0.723317 0.125457 -0.0236161 0.279958 -0.83206 -0.367141 0.882896 0.896635 0.995908 0.998212 0.989454 0.995908 0.731044 0.779484 0.869827 0.996069 0.988085 0.97415 0.996069 0.854577 0.97415 0.717007 0.995908 0.998212 0.779484 0.895775 0.220974 0.651599 0.536075 0.896635 0.735346 0.74346 0.989616 0.984174 0.946812 0.921737 0.97502 0.894373 -0.296378 0.47598 -0.739221 0.153612 -0.572817 0.207958 0.426693 0.548387 0.828066 0.735346 0.999065 0.989616 0.956348 0.828066 0.980182 0.999065 0.741283 0.603906 0.99691 0.97502 -0.550446 -1.24348 -0.416847 -1.15262 0.764161 0.587554 0.153612 0.0171906 0.934821 0.972294 0.980093 0.936933 -0.416847 -0.170761 0.225692 0.42459 0.0293178 -0.0134861 -0.88758 -0.714673 0.426562 -0.0364745 0.927837 0.713525 -0.316241 0.362798 -0.0364745 0.713525 0.901311 0.989454 0.934821 0.972294 1 0.713525 0.946812 0.921737 0.479914 0.901311 0.566377 0.934821 0.8624 0.891015 0.621004 0.545359 -1.14107 -0.963525 -0.377914 -0.0364745 0.545359 0.567133 -0.0134861 0.133182 -0.296378 0.204911 0.47598 0.757939 -0.141838 -0.964883 -0.0898209 -0.825983 -0.296378 -1.14107 0.204911 -0.377914 -1.71353 -0.963525 -1.86645 -1.2024 0.989454 0.731044 0.972294 0.692544 0.651599 0.384353 0.956348 0.828066 -0.170761 0.275114 0.42459 0.497993 0.42459 0.497993 0.808654 0.786856 0.652575 0.960189 0.240595 0.770927 0.225692 0.42459 0.74346 0.869827 -0.416847 -1.15262 -0.170761 -0.731524 -0.450795 -0.550446 0.384353 0.197918 0.621004 0.545359 0.0293178 -0.0134861 0.999065 0.989616 0.891015 0.917143 0.42459 0.808654 0.869827 0.996069 0.598037 0.717007 -0.153466 0.125457 -1.76981 -2 -1.47737 -1.85996 0.279958 0.652575 -0.367141 0.240595 0.930478 0.764161 0.47598 0.153612 -1.7339 -1.7414 -1.71353 -2 0.980182 0.999065 0.8624 0.891015 0.839524 0.621004 0.574555 0.0293178 0.74346 0.869827 0.984174 0.988085 0.384353 0.197918 0.828066 0.735346 0.207958 0.796569 0.548387 0.894373 0.204911 -0.377914 0.426562 -0.0364745 0.426693 0.548387 0.921737 0.894373 -0.0898209 0.220974 0.508922 0.536075 -1.85996 -1.86645 -1.24348 -1.15262 -0.825983 -1.47737 -0.450795 -1.18658 -1.71353 -2 -1.38168 -1.65407 -0.450795 -1.18658 -0.550446 -1.24348 -0.964883 -1.76981 -0.825983 -1.47737 0.997057 0.879561 0.764161 0.587554 0.289095 0.574555 -0.351873 0.0293178 0.204911 0.426562 0.757939 0.927837 -1.31125 -1.57311 -1.7414 -2 -1.31125 -0.844422 -1.57311 -0.88758 -0.739221 -0.80737 -1.7339 -1.7414 -2 -1.71353 -1.85996 -1.86645 0.275114 -0.0780742 0.741283 0.603906 0.692544 0.311445 0.627666 0.149557 0.917143 0.934678 0.567133 0.598037 0.240595 0.770927 -0.316241 0.362798 0.110759 -0.471709 0.311445 0.149557 0.479914 0.508922 0.901311 0.882896 -0.0898209 -0.825983 0.220974 -0.450795 -0.471709 -0.351873 -1.31125 -0.844422 0.567133 0.598037 0.133182 -0.153466 -0.367141 0.240595 -1.15922 -0.316241 -1.47737 -1.85996 -1.18658 -1.24348 
SCALARS phi_n double 1
LOOKUP_TABLE default
1.74095 1.71698 1.91005 1.92508 0.421681 1.35601 1.17498 1.63581 0.326162 1.40853 0.901026 1.57245 -1.80261 -1.02618 -0.161467 0.795011 1.5157 1.57245 1.93455 1.90467 -1.80261 -3.19837 -1.02618 -2.50744 -2.93826 -2.94521 -3.68951 -3.14846 1.93455 1.90467 1.60269 1.16166 1.60269 1.16166 1.32231 0.191829 -2.94521 -1.66319 -3.14846 -1.44757 -0.291795 -0.104999 -1.8671 -1.6654 -0.291795 0.95581 -0.104999 1.0814 1.80427 1.87448 1.09128 1.32231 -2.3492 -0.840588 -1.50816 -0.253837 1.83197 1.19194 1.7375 1.01713 1.7614 1.79522 1.05014 1.15051 0.226641 -0.765138 1.21032 0.647696 -0.503419 -1.50816 0.326162 -0.253837 -2.50744 -3.14846 -0.613278 -1.44757 -0.613278 -1.44757 1.16166 0.191829 0.388712 0.441324 1.41813 1.42546 1.91318 1.91084 1.80427 1.87448 -2.32005 -3.30515 -1.80261 -3.19837 1.91281 1.68067 1.57023 1.02666 -0.0691388 0.0934355 -1.41465 -0.32194 -0.605033 -1.53388 -2.32005 -3.30515 -1.53388 0.247145 -1.62827 -0.0597658 -2.28917 -0.794875 -1.60442 0.135282 1.72479 1.90895 1.90878 1.68767 -2.93826 -1.74932 -2.94521 -1.41465 0.576829 1.67618 1.47687 1.88055 -1.60442 0.135282 -2.3492 -0.840588 0.164691 0.600178 -0.985749 -0.557865 1.4065 1.49428 0.164691 0.600178 1.4065 0.164691 1.40362 0.516502 0.980004 1.02556 1.71698 1.72479 -0.104999 1.0814 0.421681 1.35601 1.0814 1.79036 1.35601 1.87797 1.35601 1.87797 1.63581 1.91784 1.17498 1.63581 1.84759 1.91784 1.91334 1.51034 1.90467 1.16166 1.91334 1.867 1.51034 1.77413 1.47906 1.9117 0.576829 1.67618 1.67618 1.81092 1.88055 1.22368 -0.557865 0.0235986 -1.88754 -1.74932 -0.992 -0.840039 0.388712 0.441324 -1.8671 -1.6654 -3.27094 -3.24194 1.9117 1.4847 1.67618 1.81092 0.366439 -0.613278 1.51034 1.16166 1.88523 1.40362 1.83197 1.19194 0.135282 1.47687 -0.840588 0.724482 1.49428 1.68767 0.600178 1.01002 0.724482 1.7511 1.12448 1.867 1.40853 1.91334 1.57245 1.90467 -0.985749 -2.42004 -1.62827 -3.28792 -2.94521 -1.41465 -1.66319 -0.32194 1.19194 0.0662964 1.01713 -0.0597658 -0.985749 -1.62827 0.0662964 -0.0597658 -3.482 -2.3492 -2.22665 -1.50816 1.90895 1.57023 1.68767 1.01002 1.47687 1.88055 0.724482 1.7511 -1.02618 -2.50744 0.366439 -0.613278 -3.27094 -3.24194 -3.55642 -2.99172 -1.6654 -0.80439 -3.24194 -2.28917 -3.24194 -2.28917 -2.99172 -1.60442 1.78105 0.91356 1.9117 1.4847 1.81201 1.91281 1.90895 1.57023 1.21032 1.81201 1.72479 1.90895 1.84759 1.78105 1.47906 1.9117 1.90854 1.91318 1.79522 1.80427 1.87797 1.83197 1.91784 1.7375 -0.161467 0.795011 1.22368 1.79406 -0.291795 -0.242587 0.95581 0.980004 1.84759 1.91784 1.78105 1.44453 -0.840588 0.724482 -0.253837 1.12448 -1.66319 -0.32194 -1.44757 0.191829 -0.104999 0.421681 -1.6654 -0.80439 1.71698 1.72479 1.92508 1.90878 1.91005 1.92508 1.4065 1.49428 1.60138 1.93455 1.91084 1.87448 1.93455 1.60269 1.87448 1.32231 1.92508 1.90878 1.49428 1.68767 0.226641 1.21032 1.02556 1.72479 1.41813 1.42546 1.90854 1.91318 1.7511 1.79406 1.867 1.77413 -0.605033 0.91356 -1.53388 0.247145 -1.02618 0.366439 0.795011 1.09707 1.56302 1.41813 1.92403 1.90854 1.81201 1.56302 1.91281 1.92403 1.40853 1.12448 1.91334 1.867 -0.992 -2.40035 -0.840039 -2.22665 1.44453 1.01713 0.247145 -0.0597658 1.79036 1.88523 1.87797 1.83197 -0.840039 -0.503419 0.441324 0.760561 0.0235986 -0.0691388 -1.74932 -1.41465 0.849457 -0.161467 1.81092 1.22368 -0.794875 0.576829 0.135282 1.47687 1.74095 1.91005 1.79036 1.88523 1.88055 1.22368 1.7511 1.79406 0.95581 1.74095 1.0814 1.79036 1.68067 1.7614 1.02666 1.05014 -2.32005 -1.80261 -0.836761 -0.161467 1.05014 1.15051 -0.0691388 0.0934355 -0.605033 0.441349 0.91356 1.4847 -0.291795 -1.8671 -0.242587 -1.5695 -0.605033 -2.32005 0.441349 -0.836761 -2.99172 -1.60442 -3.482 -2.3492 1.91005 1.4065 1.88523 1.40362 1.21032 0.647696 1.81201 1.56302 -0.503419 0.326162 0.760561 0.901026 0.760561 0.901026 1.5157 1.57245 1.17498 1.84759 0.394852 1.47906 0.441324 0.760561 1.42546 1.60138 -0.840039 -2.22665 -0.503419 -1.50816 -0.765138 -0.992 0.647696 0.388712 1.02666 1.05014 0.0235986 -0.0691388 1.92403 1.90854 1.7614 1.79522 0.760561 1.5157 1.60138 1.93455 1.09128 1.32231 -0.32194 0.191829 -3.27094 -3.55642 -2.83179 -3.49726 0.421681 1.17498 -0.80439 0.394852 1.78105 1.44453 0.91356 0.247145 -3.30515 -3.28792 -3.19837 -3.68951 1.91281 1.92403 1.68067 1.7614 1.57023 1.02666 1.01002 0.0235986 1.42546 1.60138 1.91318 1.91084 0.647696 0.388712 1.56302 1.41813 0.366439 1.51034 1.09707 1.77413 0.441349 -0.836761 0.849457 -0.161467 0.795011 1.09707 1.79406 1.77413 -0.242587 0.226641 0.980004 1.02556 -3.49726 -3.482 -2.40035 -2.22665 -1.5695 -2.83179 -0.765138 -2.09332 -3.19837 -3.68951 -2.50744 -3.14846 -0.765138 -2.09332 -0.992 -2.40035 -1.8671 -3.27094 -1.5695 -2.83179 1.91784 1.7375 1.44453 1.01713 0.600178 1.01002 -0.557865 0.0235986 0.441349 0.849457 1.4847 1.81092 -2.42004 -2.93826 -3.28792 -3.68951 -2.42004 -1.88754 -2.93826 -1.74932 -1.53388 -1.62827 -3.30515 -3.28792 -3.55642 -2.99172 -3.49726 -3.482 0.326162 -0.253837 1.40853 1.12448 1.40362 0.516502 1.19194 0.0662964 1.79522 1.80427 1.15051 1.09128 0.394852 1.47906 -0.794875 0.576829 0.164691 -0.985749 0.516502 0.0662964 0.95581 0.980004 1.74095 1.71698 -0.242587 -1.5695 0.226641 -0.765138 -0.985749 -0.557865 -2.42004 -1.88754 1.15051 1.09128 0.0934355 -0.32194 -0.80439 0.394852 -2.28917 -0.794875 -2.83179 -3.49726 -2.09332 -2.40035 
SCALARS alpha double 1
LOOKUP_TABLE default
0.40969 0.413045 0.412707 0.420159 0.408095 0.415951 0.415047 0.40614 0.414561 0.410403 0.414596 0.429329 0.395213 0.384964 0.403599 0.402697 0.408136 0.429329 0.417555 0.400546 0.395213 0.393811 0.384964 0.399555 0.381753 0.377309 0.373996 0.392825 0.417555 0.400546 0.392043 0.396322 0.392043 0.396322 0.41756 0.392788 0.377309 0.382522 0.392825 0.398711 0.403532 0.401543 0.392539 0.389947 0.403532 0.408424 0.401543 0.406081 0.421188 0.422109 0.412715 0.41756 0.385939 0.391311 0.389568 0.397186 0.418097 0.416331 0.389831 0.413129 0.428113 0.419776 0.424097 0.425671 0.403114 0.395275 0.396802 0.395315 0.401757 0.389568 0.414561 0.397186 0.399555 0.392825 0.385829 0.398711 0.385829 0.398711 0.396322 0.392788 0.400957 0.399529 0.406459 0.410747 0.422554 0.42329 0.421188 0.422109 0.386035 0.393053 0.395213 0.393811 0.422981 0.426578 0.410332 0.414726 0.410737 0.408098 0.395905 0.409687 0.400382 0.392453 0.386035 0.393053 0.392453 0.400325 0.392953 0.408481 0.389527 0.39532 0.389663 0.391298 0.415293 0.405538 0.411952 0.418929 0.381753 0.388906 0.377309 0.395905 0.388594 0.386686 0.384998 0.389825 0.389663 0.391298 0.385939 0.391311 0.410248 0.410356 0.406557 0.400365 0.413658 0.415715 0.410248 0.410356 0.413658 0.410248 0.422904 0.412563 0.419318 0.407495 0.413045 0.415293 0.401543 0.406081 0.408095 0.415951 0.406081 0.406838 0.415951 0.403102 0.415951 0.403102 0.40614 0.405243 0.415047 0.40614 0.405346 0.405243 0.40713 0.402133 0.400546 0.396322 0.40713 0.40767 0.402133 0.418586 0.396489 0.395611 0.388594 0.386686 0.386686 0.389649 0.389825 0.390221 0.400365 0.39568 0.394015 0.388906 0.394066 0.397808 0.400957 0.399529 0.392539 0.389947 0.395892 0.39 0.395611 0.401035 0.386686 0.389649 0.408182 0.385829 0.402133 0.396322 0.412047 0.422904 0.418097 0.416331 0.391298 0.384998 0.391311 0.392623 0.415715 0.418929 0.410356 0.403235 0.392623 0.396497 0.402794 0.40767 0.410403 0.40713 0.429329 0.400546 0.406557 0.395181 0.392953 0.40261 0.377309 0.395905 0.382522 0.409687 0.416331 0.413328 0.413129 0.408481 0.406557 0.392953 0.413328 0.408481 0.384231 0.385939 0.387345 0.389568 0.405538 0.410332 0.418929 0.403235 0.384998 0.389825 0.392623 0.396497 0.384964 0.399555 0.408182 0.385829 0.395892 0.39 0.350876 0.374433 0.389947 0.396232 0.39 0.389527 0.39 0.389527 0.374433 0.389663 0.399207 0.400292 0.395611 0.401035 0.408574 0.422981 0.405538 0.410332 0.396802 0.408574 0.415293 0.405538 0.405346 0.399207 0.396489 0.395611 0.413956 0.422554 0.419776 0.421188 0.403102 0.418097 0.405243 0.389831 0.403599 0.402697 0.390221 0.402009 0.403532 0.406903 0.408424 0.419318 0.405346 0.405243 0.399207 0.401519 0.391311 0.392623 0.397186 0.402794 0.382522 0.409687 0.398711 0.392788 0.401543 0.408095 0.389947 0.396232 0.413045 0.415293 0.420159 0.411952 0.412707 0.420159 0.413658 0.415715 0.411432 0.417555 0.42329 0.422109 0.417555 0.392043 0.422109 0.41756 0.420159 0.411952 0.415715 0.418929 0.403114 0.396802 0.407495 0.415293 0.406459 0.410747 0.413956 0.422554 0.396497 0.402009 0.40767 0.418586 0.400382 0.400292 0.392453 0.400325 0.384964 0.408182 0.402697 0.417083 0.40847 0.406459 0.417323 0.413956 0.408574 0.40847 0.422981 0.417323 0.410403 0.402794 0.40713 0.40767 0.394066 0.402889 0.397808 0.387345 0.401519 0.413129 0.400325 0.408481 0.406838 0.412047 0.403102 0.418097 0.397808 0.401757 0.399529 0.41316 0.39568 0.410737 0.388906 0.395905 0.384833 0.403599 0.389649 0.390221 0.39532 0.388594 0.391298 0.384998 0.40969 0.412707 0.406838 0.412047 0.389825 0.390221 0.396497 0.402009 0.408424 0.40969 0.406081 0.406838 0.426578 0.428113 0.414726 0.424097 0.386035 0.395213 0.384206 0.403599 0.424097 0.425671 0.410737 0.408098 0.400382 0.407319 0.400292 0.401035 0.403532 0.392539 0.406903 0.389597 0.400382 0.386035 0.407319 0.384206 0.374433 0.389663 0.384231 0.385939 0.412707 0.413658 0.412047 0.422904 0.396802 0.395315 0.408574 0.40847 0.401757 0.414561 0.41316 0.414596 0.41316 0.414596 0.408136 0.429329 0.415047 0.405346 0.40288 0.396489 0.399529 0.41316 0.410747 0.411432 0.397808 0.387345 0.401757 0.389568 0.395275 0.394066 0.395315 0.400957 0.414726 0.424097 0.39568 0.410737 0.417323 0.413956 0.428113 0.419776 0.41316 0.408136 0.411432 0.417555 0.412715 0.41756 0.409687 0.392788 0.395892 0.350876 0.414182 0.399765 0.408095 0.415047 0.396232 0.40288 0.399207 0.401519 0.400292 0.400325 0.393053 0.40261 0.393811 0.373996 0.422981 0.417323 0.426578 0.428113 0.410332 0.414726 0.403235 0.39568 0.410747 0.411432 0.422554 0.42329 0.395315 0.400957 0.40847 0.406459 0.408182 0.402133 0.417083 0.418586 0.407319 0.384206 0.384833 0.403599 0.402697 0.417083 0.402009 0.418586 0.406903 0.403114 0.419318 0.407495 0.399765 0.384231 0.402889 0.387345 0.389597 0.414182 0.395275 0.402885 0.393811 0.373996 0.399555 0.392825 0.395275 0.402885 0.394066 0.402889 0.392539 0.395892 0.389597 0.414182 0.405243 0.389831 0.401519 0.413129 0.410356 0.403235 0.400365 0.39568 0.407319 0.384833 0.401035 0.389649 0.395181 0.381753 0.40261 0.373996 0.395181 0.394015 0.381753 0.388906 0.392453 0.392953 0.393053 0.40261 0.350876 0.374433 0.399765 0.384231 0.414561 0.397186 0.410403 0.402794 0.422904 0.412563 0.416331 0.413328 0.419776 0.421188 0.425671 0.412715 0.40288 0.396489 0.39532 0.388594 0.410248 0.406557 0.412563 0.413328 0.408424 0.419318 0.40969 0.413045 0.406903 0.389597 0.403114 0.395275 0.406557 0.400365 0.395181 0.394015 0.425671 0.412715 0.408098 0.409687 0.396232 0.40288 0.389527 0.39532 0.414182 0.399765 0.402885 0.402889 
SCALARS boundary_type double 1
LOOKUP_TABLE default
1 1 1 1 1 1 1 1 1 1 1 1 1 1 1 1 1 1 1 1 1 1 1 1 1 1 1 1 1 1 1 1 1 1 1 1 1 1 1 1 1 1 1 1 1 1 1 1 1 1 1 1 1 1 1 1 1 1 1 1 1 1 1 1 1 1 1 1 1 1 1 1 1 1 1 1 1 1 1 1 1 1 1 1 1 1 1 1 1 1 1 1 1 1 1 1 1 1 1 1 1 1 1 1 1 1 1 1 1 1 1 1 1 1 1 1 1 1 1 1 1 1 1 1 1 1 1 1 1 1 1 1 1 1 1 1 1 1 1 1 1 1 1 1 1 1 1 1 1 1 1 1 1 1 1 1 1 1 1 1 1 1 1 1 1 1 1 1 1 1 1 1 1 1 1 1 1 1 1 1 1 1 1 1 1 1 1 1 1 1 1 1 1 1 1 1 1 1 1 1 1 1 1 1 1 1 1 1 1 1 1 1 1 1 1 1 1 1 1 1 1 1 1 1 1 1 1 1 1 1 1 1 1 1 1 1 1 1 1 1 1 1 1 1 1 1 1 1 1 1 1 1 1 1 1 1 1 1 1 1 1 1 1 1 1 1 1 1 1 1 1 1 1 1 1 1 1 1 1 1 1 1 1 1 1 1 1 1 1 1 1 1 1 1 1 1 1 1 1 1 1 1 1 1 1 1 1 1 1 1 1 1 1 1 1 1 1 1 1 1 1 1 1 1 1 1 1 1 1 1 1 1 1 1 1 1 1 1 1 1 1 1 1 1 1 1 1 1 1 1 1 1 1 1 1 1 1 1 1 1 1 1 1 1 1 1 1 1 1 1 1 1 1 1 1 1 1 1 1 1 1 1 1 1 1 1 1 1 1 1 1 1 1 1 1 1 1 1 1 1 1 1 1 1 1 1 1 1 1 1 1 1 1 1 1 1 1 1 1 1 1 1 1 1 1 1 1 1 1 1 1 1 1 1 1 1 1 1 1 1 1 1 1 1 1 1 1 1 1 1 1 1 1 1 1 1 1 1 1 1 1 1 1 1 1 1 1 1 1 1 1 1 1 1 1 1 1 1 1 1 1 1 1 1 1 1 1 1 1 1 1 1 1 1 1 1 1 1 1 1 1 1 1 1 1 1 1 1 1 1 1 1 1 1 1 1 1 1 1 1 1 1 1 1 1 1 1 1 1 1 1 1 1 1 1 1 1 1 1 1 1 1 1 1 1 1 1 1 1 1 1 1 1 1 1 1 1 1 1 1 1 1 1 1 1 1 1 1 1 1 1 1 1 1 1 1 1 1 1 1 1 1 1 1 1 1 1 1 1 1 1 1 1 1 1 1 1 1 1 1 1 1 1 1 1 1 1 1 1 1 1 1 1 1 1 1 
SCALARS phi_exact double 1
LOOKUP_TABLE default