# vtk DataFile Version 3.0
#This file was generated by the deal.II library on 2025/2/17 at 13:55:27
ASCII
DATASET UNSTRUCTURED_GRID

POINTS 2204 double
-0.828025 -0.129113 -0.545622
-0.863229 -0.25666 -0.434698
-0.888261 -0.04506 -0.457123
-0.905324 -0.140258 -0.400894
-0.222439 -0.786257 -0.576473
-0.33095 -0.727841 -0.6006
-0.143936 -0.714228 -0.684953
-0.338667 -0.644002 -0.685978
0.736272 -0.295739 0.608639
0.622658 -0.287939 0.727591
0.677044 -0.432527 0.595425
0.542795 -0.452307 0.707667
0.959677 0.239959 -0.146424
0.980099 0.112507 -0.16355
0.917226 0.287101 -0.27617
0.942707 0.149444 -0.298277
-0.448153 0.811796 0.374362
-0.379435 0.883935 0.273291
-0.572477 0.774849 0.268101
-0.49443 0.851261 0.175765
-0.474607 0.781071 -0.405803
-0.588031 0.692945 -0.417189
-0.496617 0.812461 -0.305417
-0.606442 0.748147 -0.269266
0.15668 -0.835238 0.527094
0.304114 -0.785862 0.538456
0.118611 -0.758593 0.640677
0.277028 -0.709611 0.647849
-0.298672 -0.318653 0.899586
-0.123001 -0.319763 0.93948
-0.310766 -0.203844 0.928371
-0.12955 -0.163004 0.978083
-0.904012 0.272581 -0.329335
-0.850703 0.337823 -0.402717
-0.888023 0.171583 -0.426585
-0.825097 0.286364 -0.487043
0.400469 0.471584 -0.785642
0.45955 0.320299 -0.828385
0.270472 0.377634 -0.885572
0.355383 0.163726 -0.92027
0.324699 -7.95284e-17 -0.945817
0.355383 0.163726 -0.92027
0.475947 -1.16573e-16 -0.879474
0.550943 0.158715 -0.819311
0.405909 0.619439 -0.671962
0.400469 0.471584 -0.785642
0.250597 0.666646 -0.701985
0.215678 0.560606 -0.799502
-0.586196 -0.52763 -0.614801
-0.46583 -0.490196 -0.736688
-0.50323 -0.650444 -0.56893
-0.338667 -0.644002 -0.685978
0.31884 -0.314023 0.894277
0.259969 -0.154603 0.95316
0.174762 -0.370545 0.912225
0.0817322 -0.142868 0.986361
0.630751 0.724265 -0.278557
0.656554 0.633885 -0.408812
0.507928 0.774458 -0.377126
0.535124 0.685799 -0.493277
0.37753 0.809954 -0.448826
0.507928 0.774458 -0.377126
0.39951 0.723965 -0.562376
0.535124 0.685799 -0.493277
-0.186355 0.0678392 -0.980138
6.12323e-17 -1.49976e-32 -1
-0.240715 -0.0959539 -0.965841
-0.122454 -0.107199 -0.986668
0.00959818 -0.863826 0.503699
0.0455115 -0.922554 0.383174
0.15668 -0.835238 0.527094
0.191302 -0.891456 0.410742
-0.82345 -0.420424 -0.381016
-0.863229 -0.25666 -0.434698
-0.751098 -0.416788 -0.511996
-0.787214 -0.310554 -0.532776
0.525344 -0.314376 -0.790684
0.386395 -0.311751 -0.86805
0.542323 -0.146315 -0.827332
0.401415 -0.146621 -0.904084
0.0278889 -0.429745 0.902519
0.174762 -0.370545 0.912225
-0.0095739 -0.29467 0.955551
0.0817322 -0.142868 0.986361
-0.887778 0.390133 -0.244228
-0.846763 0.508186 -0.157289
-0.802533 0.465396 -0.373293
-0.768987 0.587016 -0.253122
-0.484729 -0.774115 0.407167
-0.369683 -0.869289 0.328134
-0.364215 -0.794447 0.486006
-0.278053 -0.853725 0.440273
-0.0799324 0.996082 -0.0378433
-0.216999 0.97412 0.0632656
-0.0301687 0.995507 0.0897581
-0.0994354 0.982527 0.157329
0.400469 0.471584 -0.785642
0.270472 0.377634 -0.885572
0.215678 0.560606 -0.799502
0.180808 0.475152 -0.861126
0.649778 -0.312982 -0.692699
0.670334 -0.142868 -0.728177
0.758405 -0.310988 -0.572808
0.781931 -0.139908 -0.607462
0.324699 -7.95284e-17 -0.945817
0.164595 -4.0314e-17 -0.986361
0.355383 0.163726 -0.92027
0.194822 0.149358 -0.9694
-0.310766 -0.203844 0.928371
-0.12955 -0.163004 0.978083
-0.441795 -0.0868531 0.892902
-0.288471 0.111048 0.951027
-0.440384 -0.298053 -0.846892
-0.496543 -0.14322 -0.856115
-0.300088 -0.227723 -0.926331
-0.408707 -0.112784 -0.90567
-0.946862 0.293187 -0.132261
-0.887778 0.390133 -0.244228
-0.95867 0.172553 -0.226226
-0.904012 0.272581 -0.329335
-0.818516 -0.541993 -0.190461
-0.762777 -0.553108 -0.335026
-0.738235 -0.658634 -0.145637
-0.683426 -0.67198 -0.285257
0.630751 0.724265 -0.278557
0.735773 0.652746 -0.180445
0.656554 0.633885 -0.408812
0.75892 0.570554 -0.313861
-0.344463 -0.434185 -0.832364
-0.210823 -0.545313 -0.811288
-0.46583 -0.490196 -0.736688
-0.338667 -0.644002 -0.685978
0.525344 -0.314376 -0.790684
0.542323 -0.146315 -0.827332
0.649778 -0.312982 -0.692699
0.670334 -0.142868 -0.728177
0.622658 -0.287939 0.727591
0.474509 -0.237015 0.847741
0.542795 -0.452307 0.707667
0.460314 -0.38543 0.799722
0.45955 0.320299 -0.828385
0.566135 0.308564 -0.764382
0.355383 0.163726 -0.92027
0.550943 0.158715 -0.819311
-0.690594 0.593307 -0.413603
-0.802533 0.465396 -0.373293
-0.698905 0.641138 -0.316975
-0.768987 0.587016 -0.253122
0.582736 0.768791 0.263401
0.48913 0.777525 0.395231
0.652747 0.668843 0.355766
0.55934 0.679778 0.474385
0.827932 -0.288813 0.480745
0.736272 -0.295739 0.608639
0.771021 -0.416332 0.481866
0.677044 -0.432527 0.595425
0.022811 -0.962325 -0.270943
0.133246 -0.970139 -0.202673
-0.0476545 -0.988117 -0.146129
0.0734323 -0.992993 -0.0925848
0.246107 -0.296913 -0.922645
0.241368 -0.141887 -0.960005
0.386395 -0.311751 -0.86805
0.401415 -0.146621 -0.904084
-0.50524 0.724435 0.468963
-0.448153 0.811796 0.374362
-0.635091 0.680776 0.364971
-0.572477 0.774849 0.268101
0.083712 -0.672748 0.73512
0.242102 -0.61538 0.750129
0.0525812 -0.559339 0.82727
0.213074 -0.5096 0.833611
-0.548506 0.158947 -0.8209
-0.455218 0.179582 -0.872082
-0.540636 0.00981355 -0.8412
-0.381087 0.0599101 -0.922596
-0.740723 0.670937 0.034263
-0.646938 0.761333 -0.0429424
-0.794222 0.603872 -0.0674534
-0.7117 0.685053 -0.155514
-0.608406 0.0891223 0.788606
-0.489806 0.126107 0.862663
-0.603411 0.251124 0.756856
-0.485529 0.260974 0.834358
-0.544176 -0.838232 -0.0352084
-0.648723 -0.755038 -0.0952729
-0.480513 -0.858297 -0.180091
-0.588404 -0.774038 -0.233764
0.0787101 0.837993 -0.539975
0.152762 0.769762 -0.619783
-0.0260286 0.758626 -0.651006
0.10518 0.710101 -0.696199
0.400469 0.471584 -0.785642
0.560506 0.448823 -0.695982
0.45955 0.320299 -0.828385
0.566135 0.308564 -0.764382
0.918588 0.369859 0.139288
0.951026 0.309089 -0.00373117
0.879999 0.47405 0.0296421
0.908418 0.40118 -0.117603
0.148399 0.710881 0.687478
0.203193 0.785771 0.584189
-0.00229964 0.770973 0.636864
0.0481902 0.849466 0.525438
0.270472 0.377634 -0.885572
0.355383 0.163726 -0.92027
0.123338 0.34493 -0.93049
0.194822 0.149358 -0.9694
-0.887778 0.390133 -0.244228
-0.802533 0.465396 -0.373293
-0.904012 0.272581 -0.329335
-0.850703 0.337823 -0.402717
0.807507 0.280595 0.518844
0.709909 0.280831 0.645882
0.781045 0.142868 0.607912
0.669508 0.139606 0.729568
0.270472 0.377634 -0.885572
0.123338 0.34493 -0.93049
0.180808 0.475152 -0.861126
0.0481462 0.468033 -0.882398
0.405909 0.619439 -0.671962
0.548994 0.574697 -0.606901
0.400469 0.471584 -0.785642
0.560506 0.448823 -0.695982
0.669178 0.532337 -0.518477
0.678674 0.421709 -0.601302
0.548994 0.574697 -0.606901
0.560506 0.448823 -0.695982
0.608609 0.431012 0.666201
0.596584 0.566673 0.568304
0.484754 0.438676 0.756688
0.461762 0.594084 0.658665
0.123338 0.34493 -0.93049
-0.0685972 0.254441 -0.964652
0.0481462 0.468033 -0.882398
-0.172746 0.411713 -0.894791
0.215678 0.560606 -0.799502
0.180808 0.475152 -0.861126
0.0230597 0.580165 -0.814173
0.0481462 0.468033 -0.882398
0.669178 0.532337 -0.518477
0.76353 0.476286 -0.436089
0.678674 0.421709 -0.601302
0.751997 0.403705 -0.521078
-0.828025 -0.129113 -0.545622
-0.734521 -0.225267 -0.640104
-0.863229 -0.25666 -0.434698
-0.787214 -0.310554 -0.532776
0.280868 0.627515 0.72618
0.366857 0.560893 0.742169
0.338373 0.699485 0.629463
0.461762 0.594084 0.658665
-0.186355 0.0678392 -0.980138
-0.315728 0.215116 -0.924143
-0.0685972 0.254441 -0.964652
-0.172746 0.411713 -0.894791
-0.40967 0.297778 -0.862264
-0.326344 0.451552 -0.830422
-0.315728 0.215116 -0.924143
-0.172746 0.411713 -0.894791
0.407313 0.751112 0.519545
0.273748 0.85171 0.446824
0.338373 0.699485 0.629463
0.203193 0.785771 0.584189
-0.516454 0.314017 -0.796661
-0.40967 0.297778 -0.862264
-0.548506 0.158947 -0.8209
-0.455218 0.179582 -0.872082
0.231459 0.535776 0.812016
0.0893969 0.618878 0.780383
0.152072 0.445616 0.882213
0.00457661 0.526917 0.849904
0.48913 0.777525 0.395231
0.375818 0.843248 0.384309
0.407313 0.751112 0.519545
0.273748 0.85171 0.446824
0.273748 0.85171 0.446824
0.0974935 0.907589 0.408383
0.203193 0.785771 0.584189
0.0481902 0.849466 0.525438
-0.516454 0.314017 -0.796661
-0.548506 0.158947 -0.8209
-0.642789 0.262807 -0.719552
-0.686934 0.124725 -0.715936
-0.516454 0.314017 -0.796661
-0.642789 0.262807 -0.719552
-0.606923 0.439917 -0.661904
-0.697047 0.327168 -0.638033
-0.0852167 0.867487 -0.490107
-0.155308 0.793701 -0.588148
-0.19191 0.875488 -0.443498
-0.295363 0.806763 -0.511757
-0.415901 -0.749598 -0.514908
-0.50323 -0.650444 -0.56893
-0.33095 -0.727841 -0.6006
-0.338667 -0.644002 -0.685978
0.241368 -0.141887 -0.960005
0.324699 -7.95284e-17 -0.945817
0.401415 -0.146621 -0.904084
0.475947 -1.16573e-16 -0.879474
-0.66114 0.520863 -0.539995
-0.606923 0.439917 -0.661904
-0.751966 0.403762 -0.521079
-0.697047 0.327168 -0.638033
-0.960253 0.204434 0.190056
-0.926267 0.230377 0.298255
-0.929901 0.333583 0.15494
-0.878395 0.363918 0.309817
0.021245 0.971894 0.234458
-0.0474574 0.938867 0.340993
0.152873 0.941595 0.300046
0.0974935 0.907589 0.408383
-0.36115 0.735896 0.572737
-0.418693 0.636821 0.647422
-0.209632 0.719812 0.661759
-0.277994 0.621978 0.732027
-0.185934 -0.972892 0.137513
-0.117563 -0.99306 -0.00314751
-0.0551095 -0.978257 0.199941
0.0119266 -0.998632 0.0509183
-0.636255 -0.200411 0.744994
-0.562529 -0.223382 0.796029
-0.685328 -0.0652313 0.725307
-0.584411 -0.0756261 0.807926
-0.88111 0.456142 0.124818
-0.904563 0.425715 -0.0230945
-0.929901 0.333583 0.15494
-0.948363 0.313521 0.0480856
-0.36115 0.735896 0.572737
-0.209632 0.719812 0.661759
-0.30883 0.82429 0.474522
-0.157822 0.809748 0.565155
-0.943445 -0.0577237 0.326464
-0.965083 0.0743078 0.251185
-0.973658 -0.111895 0.198671
-0.993338 0.015845 0.114139
-0.35251 0.860394 -0.368047
-0.295363 0.806763 -0.511757
-0.474607 0.781071 -0.405803
-0.443922 0.725138 -0.526411
0.542323 -0.146315 -0.827332
0.614213 -1.50439e-16 -0.789141
0.670334 -0.142868 -0.728177
0.735724 -1.802e-16 -0.677282
-0.300088 -0.227723 -0.926331
-0.240715 -0.0959539 -0.965841
[...]
POINT_DATA 2204
SCALARS phi double 1
LOOKUP_TABLE default
0.106889 0.433114 0.373116 0.517852 0.00303661 -0.0821606 -0.407483 -0.411699 -0.111324 -0.588164 -0.0635941 -0.502378 0.93568 0.919755 0.771191 0.733092 0.579559 0.775937 0.784365 0.90732 0.505971 0.477859 0.720162 0.782487 0.166516 0.130194 -0.231402 -0.259125 -1.42777 -1.64787 -1.58562 -1.86994 0.674615 0.513457 0.454077 0.288367 -0.851699 -1.05867 -1.35271 -1.54069 -1.68371 -1.54069 -1.32042 -1.01381 -0.354598 -0.851699 -0.478351 -0.917611 -0.133943 -0.628129 0.0289547 -0.411699 -1.39919 -1.72554 -1.49646 -1.91873 0.767218 0.498617 0.573327 0.270032 0.395665 0.573327 0.0511995 0.270032 -1.88201 -2 -1.79855 -1.92054 0.238863 0.559532 0.166516 0.493872 0.56448 0.433114 0.213579 0.14845 -0.875544 -1.26053 -1.05343 -1.4521 -1.44362 -1.49646 -1.73923 -1.91873 0.821058 0.92578 0.581958 0.807787 0.502646 0.676984 0.291396 0.41848 0.995704 0.987992 0.97583 0.925743 -0.851699 -1.35271 -0.917611 -1.22462 -0.439494 -0.590724 0.0156725 -0.10703 -1.68371 -1.91873 -1.54069 -1.81921 -1.58562 -1.86994 -1.39182 -1.71336 -1.15168 -1.1988 -1.57427 -1.46071 0.947521 0.821058 0.846466 0.674615 0.891173 0.663273 0.936369 0.755885 0.767218 0.902319 0.498617 0.704473 -1.07849 -0.974563 -0.628129 -0.411699 -0.875544 -1.05343 -0.439494 -0.590724 -0.588164 -1.15599 -0.502378 -0.918666 -1.05867 -0.752837 -1.54069 -1.01381 0.486797 0.581958 0.698581 0.807787 0.79186 0.531378 0.620291 0.324877 0.306654 -0.111324 0.303415 -0.0635941 0.77977 0.876771 0.935939 0.974284 -1.55382 -1.76483 -1.26053 -1.4521 0.340221 0.579559 0.600389 0.784365 -0.621206 -0.688081 -1.05313 -1.08472 -1.02163 -1.28158 -1.12285 -1.55355 0.996478 0.994468 0.98635 0.927446 -0.865699 -1.23256 -0.718494 -1.08846 0.996281 0.972769 0.902701 0.836063 0.125281 -0.152391 -0.271426 -0.45408 -0.851699 -0.453172 -1.05867 -0.752837 0.941796 0.999958 0.997364 0.958509 -0.417878 -0.0238314 -0.216786 0.171745 -1.35271 -1.54069 -1.59743 -1.81921 0.821058 0.581958 0.674615 0.513457 0.192404 -0.25149 -0.108671 -0.596808 -1.35271 -1.59743 -1.22462 -1.33588 -0.354598 -0.104987 -0.851699 -0.453172 0.193545 -0.0846919 -0.104987 -0.453172 -0.331471 0.0310927 -0.717732 -0.301519 -1.59743 -1.79166 -1.33588 -1.40195 -0.917611 -1.22462 -0.988632 -1.33588 0.193545 0.429478 -0.0846919 0.185432 0.106889 -0.2292 0.433114 0.14845 -0.582013 -0.652445 -0.188672 -0.301519 -1.88201 -1.56212 -1.79166 -1.40195 -1.2305 -1.0688 -1.56212 -1.40195 0.190219 0.401045 -0.188672 -0.0238314 -0.904007 -1.2305 -1.02163 -1.28158 -0.978112 -0.826993 -1.3349 -1.16701 0.531378 0.55692 0.190219 0.401045 0.401045 0.499671 -0.0238314 0.171745 -0.904007 -1.02163 -0.553266 -0.537695 -0.904007 -0.553266 -0.314351 -0.221258 0.279385 -0.0377542 0.409929 0.214316 0.20461 0.0289547 -0.0821606 -0.411699 -1.76483 -1.68371 -1.4521 -1.32042 0.125216 -0.314351 0.185432 -0.221258 0.891636 0.733131 0.927981 0.712041 0.835088 0.651171 0.729916 0.499671 0.0159167 -0.257467 -0.313777 -0.607589 0.94327 0.99997 0.88007 0.992222 -0.665046 -0.900985 -0.578212 -0.958235 0.953261 0.9984 0.927981 0.993063 0.0159167 -0.313777 0.324488 0.041798 0.680263 0.810719 0.881589 0.960917 0.593624 0.214316 0.505971 0.168675 -1.05343 -0.868228 -0.590724 -0.376131 -1.57427 -1.79855 -1.77544 -1.92054 0.486797 0.125216 0.581958 0.185432 -0.447823 -0.692478 -0.665046 -0.900985 -0.146112 0.127481 -0.486771 -0.106397 0.947519 0.835088 0.872443 0.729916 0.881589 0.960917 0.978789 0.999493 0.858211 0.985373 0.838134 0.977248 0.953261 0.97544 0.9984 0.999983 0.600595 0.858211 0.564793 0.838134 0.648241 0.731836 0.852098 0.946802 -1.36975 -1.06096 -1.15099 -0.860439 -0.822477 -1.15099 -0.596344 -0.860439 0.361962 0.465022 0.648241 0.731836 0.82516 0.761483 0.955905 0.852098 0.547682 0.82516 0.502646 0.762827 0.217183 0.0956178 -0.259061 -0.227645 0.319107 0.547682 0.166298 0.502646 0.102543 -0.108671 -0.376131 -0.596808 0.371074 0.00303661 0.512408 0.189069 0.686416 0.373116 0.72164 0.517852 0.57423 0.480043 0.299881 0.189069 -1.86994 -1.91873 -2 -1.91873 -1.40618 -1.57427 -1.43679 -1.77544 0.821099 0.958501 0.754703 0.895763 0.600595 0.564793 0.217183 0.0956178 -0.822477 -0.407483 -0.974563 -0.411699 0.94327 0.982695 0.99997 0.987601 0.923686 0.978789 0.946802 0.999447 0.299881 0.189069 -0.0145172 -0.217739 0.987601 0.953792 0.867099 0.778161 -0.578212 -0.958235 -0.416103 -0.865699 0.690167 0.329188 0.819211 0.515922 0.902701 0.836063 0.678035 0.567896 0.902701 0.678035 0.953792 0.778161 -1.68371 -1.32042 -1.76483 -1.46457 0.964215 0.782487 0.994468 0.927446 -0.822477 -0.974563 -1.15099 -1.43679 0.733131 0.588605 0.712041 0.270683 0.20461 0.567896 0.0289547 0.444508 -0.300466 -0.0145172 -0.596344 -0.217739 0.00999603 -0.174812 0.291468 0.163978 0.858211 0.894236 0.985373 0.998292 -0.179307 -0.537695 -0.412578 -0.735442 0.964215 0.994468 0.998899 0.984037 0.929768 0.670412 0.902021 0.709025 -0.133943 0.0289547 0.321055 0.444508 -0.300466 0.00999603 -0.0145172 0.268394 0.896423 0.720952 0.995704 0.926943 0.00999603 0.291468 0.268394 0.527263 0.894236 0.929798 0.998292 0.998858 -1.13425 -1.42777 -0.926954 -1.16621 0.997231 0.964215 0.981066 0.998899 0.532773 0.268394 0.830218 0.527263 0.929768 0.830218 0.670412 0.527263 0.995704 0.926943 0.987992 0.997231 0.602493 0.834742 0.395665 0.573327 0.929768 0.998292 0.830218 0.998858 -1.13425 -0.926954 -0.741973 -0.591522 0.712041 0.270683 0.542416 0.218798 -0.133943 -0.233426 -0.628129 -0.714033 0.891636 0.810719 0.733131 0.588605 -0.0739871 -0.167693 -0.456887 -0.591032 0.88007 0.992222 0.819923 0.975044 0.101637 -0.0739871 -0.257467 -0.456887 0.819923 0.772956 0.559532 0.493872 0.602493 0.598832 0.834742 0.86066 -0.265125 -0.167693 0.270683 0.218798 -0.416103 -0.865699 -0.265125 -0.718494 0.819923 0.975044 0.772956 0.955118 -0.233426 -0.2292 -0.714033 -0.767973 -0.2292 -0.412578 -0.767973 -0.735442 -0.265125 -0.718494 -0.167693 -0.591032 0.764096 0.560725 0.896423 0.720952 0.764096 0.598832 0.560725 0.440911 0.945862 0.834742 0.997499 0.997957 0.945862 0.997499 0.995654 0.961593 0.995654 0.961593 0.986265 0.862276 0.862276 0.620291 0.69402 0.384028 0.986265 0.862276 0.907655 0.69402 0.763623 0.907655 0.465542 0.69402 0.501707 0.0156725 0.329188 -0.10703 0.999958 0.93568 0.958509 0.771191 0.185432 -0.221258 0.288367 -0.0592 -0.108671 -0.376131 -0.596165 -0.868228 -0.868228 -0.550743 -0.376131 -0.108671 -1.72554 -1.68371 -1.91873 -1.91873 0.515922 0.334293 0.102543 -0.108671 0.921399 0.690167 0.979542 0.819211 0.690167 0.922307 0.515922 0.819211 0.763623 0.465542 0.568703 0.192404 0.996281 0.968729 0.972769 0.998698 0.0511995 -0.354598 -0.076542 -0.478351 0.854841 0.958509 0.608976 0.771191 0.639281 0.880629 0.690167 0.922307 0.979542 0.999943 0.979542 0.920385 -0.0377542 -0.323169 0.214316 -0.117963 -0.257467 -0.456887 -0.607589 -0.825386 -0.300466 -0.515813 0.00999603 -0.174812 0.602493 0.395665 0.598832 0.250908 -0.706756 -0.310205 -0.515813 -0.174812 -0.447823 -0.665046 -0.19244 -0.578212 -0.958235 -1.39182 -0.865699 -1.23256 -1.36975 -1.15099 -1.64037 -1.43679 -0.456887 -0.591032 -0.825386 -0.983292 -1.13425 -0.741973 -1.30133 -0.914045 -0.978112 -0.947856 -0.582013 -0.652445 -1.59743 -1.81921 -1.79166 -1.88533 -0.313777 -0.579644 0.041798 -0.216786 0.926943 0.822873 0.997231 0.964215 0.947521 0.9984 0.821058 0.92578 0.997499 0.997957 0.889104 0.973192 -0.0739871 0.178035 -0.167693 0.218798 0.581958 0.185432 0.513457 0.288367 0.922307 0.99999 0.819211 0.979542 0.981066 0.998899 0.90732 0.984037 0.581042 0.648241 0.761483 0.852098 0.902319 0.982568 0.704473 0.854841 0.486797 0.698581 0.477859 0.782487 -0.592889 -0.988632 -0.845225 -1.07642 -0.659967 -0.688081 -0.259061 -0.259125 -1.76483 -1.89813 -1.68371 -1.91873 -0.596165 -0.868228 -1.04076 -1.32042 -1.68371 -1.76483 -1.91873 -1.91873 -0.868228 -1.32042 -0.550743 -1.01381 -1.72554 -1.46895 -1.68371 -1.32042 -1.05343 -1.4521 -0.868228 -1.32042 -0.904007 -0.314351 -0.701011 -0.290547 0.880629 0.99455 0.922307 0.99999 0.651171 0.384732 0.499671 0.171745 0.819211 0.979542 0.698269 0.920385 0.978789 0.999493 0.999447 0.934817 0.801654 0.923686 0.731836 0.946802 0.955118 0.99593 0.929798 0.998858 0.921399 0.979542 0.99999 0.979542 0.992222 0.974284 0.975044 0.990995 0.955905 0.852098 0.999025 0.946802 0.999025 0.946802 0.958501 0.999447 0.891173 0.999025 0.821099 0.958501 0.190219 -0.188672 0.0933669 -0.301519 -0.478351 -0.917611 -0.45408 -0.988632 0.801654 0.881589 0.923686 0.978789 0.975044 0.990995 0.955118 0.99593 0.217183 -0.259061 0.130194 -0.259125 0.846466 0.674615 0.686416 0.454077 0.995895 0.985373 0.929768 0.998292 0.647294 0.729916 0.401045 0.499671 0.891636 0.999978 0.810719 0.960917 0.947521 0.999978 0.9984 0.993063 -0.0846919 -0.31058 -0.453172 -0.752837 0.834742 0.86066 0.997957 0.985153 0.958501 0.999447 0.895763 0.934817 0.953261 0.927981 0.850134 0.712041 0.515922 0.819211 0.334293 0.698269 0.041798 -0.216786 0.384732 0.171745 0.547682 0.581042 0.82516 0.761483 0.972769 0.936369 0.836063 0.755885 -0.904007 -0.701011 -1.2305 -1.0688 0.891636 0.927981 0.999978 0.993063 0.754703 0.895763 0.72164 0.934817 0.0859466 -0.331471 -0.25149 -0.704396 -0.310205 0.0946534 -0.174812 0.163978 -0.31058 -0.550743 -0.752837 -1.01381 -0.331471 -0.717732 -0.704396 -1.1127 -0.25149 -0.704396 -0.596808 -1.06923 0.515922 0.102543 0.733092 0.31619 0.663273 0.56448 0.321055 0.213579 0.329391 0.102543 -0.108671 -0.376131 0.303415 -0.0635941 0.343856 0.0956178 0.764096 0.87387 0.598832 0.86066 0.678405 0.735293 0.894236 0.929798 -0.300466 -0.596344 -0.515813 -0.860439 0.299881 -0.0145172 0.532773 0.268394 -0.947856 -0.717732 -0.652445 -0.301519 -0.875544 -0.439494 -0.706756 -0.310205 0.505971 0.168675 0.477859 0.129752 0.568703 0.192404 0.334293 -0.108671 0.796346 0.501707 0.690167 0.329188 -0.692478 -0.387206 -0.926954 -0.591522 0.663273 0.321055 0.755885 0.444508 0.600595 0.678405 0.858211 0.894236 0.690167 0.515922 0.329391 0.102543 -0.146112 0.291396 0.127481 0.41848 -0.0635941 -0.502378 0.0956178 -0.227645 -0.659967 -0.502378 -1.03478 -0.918666 0.560725 0.279385 0.720952 0.409929 -0.146112 -0.486771 -0.741973 -0.914045 0.371074 0.20461 0.00303661 -0.0821606 0.371074 0.512408 0.678035 0.778161 -0.825386 -0.983292 -1.14185 -1.28956 0.738614 0.532773 0.899762 0.830218 0.238863 0.166516 -0.106397 -0.231402 0.584757 0.343856 0.564793 0.0956178 0.340221 0.101637 0.0159167 -0.257467 -0.439494 0.0156725 -0.310205 0.0946534 0.600389 0.819932 0.36834 0.542416 0.501707 0.446768 0.0156725 0.0946534 -1.44362 -1.05313 -1.49646 -1.08472 0.476559 0.670412 0.291468 0.527263 -0.323169 -0.532987 -0.117963 -0.186106 -0.704396 -1.1127 -1.06923 -1.46457 -0.582013 -0.188672 -0.417878 -0.0238314 0.568703 0.334293 0.834786 0.698269 -1.88201 -1.79855 -1.56212 -1.55355 -2 -1.91873 -1.90126 -1.91873 0.99997 0.935939 0.992222 0.974284 0.996281 0.902701 0.998643 0.953792 0.889104 0.876367 0.731086 0.74846 0.982695 0.998643 0.987601 0.953792 0.945862 0.995654 0.767218 0.902319 -0.0377542 -0.271426 -0.323169 -0.592889 -0.578212 -0.416103 -0.112065 0.0264603 0.0511995 0.270032 -0.354598 -0.104987 0.995895 0.993286 0.985373 0.977248 0.562664 0.801654 0.465022 0.731836 -0.553266 -0.537695 -0.221258 -0.0592 -0.376131 -0.108671 0.102543 0.31619 0.329188 -0.10703 0.515922 0.102543 -1.39919 -1.03478 -1.15599 -0.918666 -0.590724 -0.376131 -0.10703 0.102543 0.836063 0.755885 0.567896 0.444508 0.600595 0.217183 0.678405 0.462378 0.99997 0.987601 0.935939 0.867099 0.106889 -0.179307 -0.2292 -0.412578 -1.07849 -0.628129 -1.15168 -0.714033 0.772956 0.955118 0.735293 0.929798 0.960883 0.921399 0.99455 0.99999 -0.659967 -0.259061 -0.502378 -0.227645 0.720952 0.409929 0.593624 0.214316 0.880629 0.857503 0.99455 0.984726 -0.486771 -0.106397 -0.621206 -0.231402 0.92953 0.899762 0.990995 0.99593 0.995895 0.929768 0.993286 0.902021 -0.146112 -0.741973 -0.30792 -0.591522 0.562664 0.680263 0.801654 0.881589 0.371074 0.678035 0.20461 0.567896 0.465542 0.0859466 0.192404 -0.25149 0.817648 0.676984 0.910316 0.896398 0.960883 0.99455 0.982433 0.984726 -0.718494 -1.08846 -0.591032 -0.983292 -0.988632 -1.33588 -1.07642 -1.40195 0.125216 0.129752 -0.314351 -0.290547 0.899762 0.830218 0.99593 0.998858 0.465542 0.69402 0.0859466 0.384028 0.310142 0.238863 0.127481 -0.106397 0.997499 0.889104 0.961593 0.79186 0.340221 0.0159167 0.579559 0.324488 -1.89813 -1.9011 -1.91873 -2 -0.822477 -0.596344 -0.407483 -0.217739 0.819211 0.515922 0.919755 0.733092 0.598832 0.250908 0.440911 0.125281 -0.659967 -1.03478 -0.688081 -1.08472 -1.42777 -1.58562 -1.16621 -1.39182 -1.30133 -0.914045 -1.44362 -1.05313 -0.978112 -0.582013 -0.826993 -0.417878 0.498617 0.704473 0.193545 0.429478 0.999958 0.999943 0.93568 0.919755 0.686416 0.72164 0.888163 0.934817 -1.39182 -1.71336 -1.23256 -1.47938 -0.233426 0.213579 -0.2292 0.14845 0.982568 0.997364 0.854841 0.958509 0.889104 0.731086 0.79186 0.531378 0.987992 0.997231 0.914228 0.981066 0.97544 0.996478 0.999983 0.98635 0.168675 -0.186106 0.129752 -0.290547 0.961593 0.79186 0.862276 0.620291 0.502646 0.762827 0.676984 0.896398 0.821099 0.754703 0.56448 0.433114 0.986265 0.907655 0.982568 0.997364 0.945862 0.767218 0.834742 0.573327 -1.64787 -1.73923 -1.86994 -1.91873 -0.416103 -0.265125 0.0264603 0.270683 0.498617 0.193545 0.270032 -0.104987 0.842746 0.838134 0.979079 0.977248 -0.868228 -1.06923 -1.32042 -1.46457 0.972769 0.998698 0.936369 0.993786 0.960883 0.796346 0.921399 0.690167 -1.08846 -1.31735 -0.983292 -1.28956 0.698581 0.807787 0.782487 0.927446 0.394792 0.0264603 0.588605 0.270683 -1.64037 -1.43679 -1.9011 -1.77544 0.997957 0.985153 0.973192 0.973254 0.0859466 0.384028 -0.331471 0.0310927 0.668572 0.512408 0.480043 0.189069 -0.588164 -0.596165 -1.15599 -1.04076 0.446768 0.459716 0.0946534 0.163978 0.731086 0.74846 0.531378 0.55692 0.579559 0.324488 0.775937 0.594988 0.429478 0.608976 0.185432 0.198303 0.763623 0.568703 0.941796 0.834786 0.279385 0.125281 -0.0377542 -0.271426 -0.826993 -0.579644 -1.16701 -0.894625 -0.706756 -0.515813 -1.06096 -0.860439 0.996478 0.929497 0.994468 0.984037 -1.15168 -0.714033 -1.1988 -0.767973 0.476559 0.459716 0.670412 0.709025 0.999958 0.942488 0.999943 0.920385 -0.0846919 0.185432 -0.31058 0.198303 0.846466 0.686416 0.960453 0.888163 0.784365 0.90732 0.929497 0.984037 0.454077 0.288367 0.157439 -0.0592 0.763623 0.941796 0.907655 0.997364 0.94327 0.817648 0.982695 0.910316 -0.313777 -0.607589 -0.579644 -0.894625 -1.7177 -1.64037 -1.89813 -1.9011 -0.19244 0.178674 0.083035 0.235442 -0.486771 -0.621206 -0.914045 -1.05313 0.720952 0.593624 0.926943 0.822873 0.680263 0.394792 0.810719 0.588605 0.914228 0.775937 0.79833 0.594988 -1.2305 -1.56212 -1.28158 -1.55355 -0.271426 -0.45408 -0.592889 -0.988632 -0.376131 -0.596808 -0.868228 -1.06923 -0.826993 -0.417878 -0.579644 -0.216786 0.00303661 -0.407483 0.189069 -0.217739 0.106889 0.373116 -0.179307 0.157439 0.686416 0.454077 0.373116 0.157439 -1.57427 -1.46071 -1.79855 -1.55355 -1.55382 -1.26053 -1.36975 -1.06096 0.891173 0.821099 0.663273 0.56448 0.88007 0.819923 0.619998 0.559532 -1.39919 -1.15599 -1.72554 -1.46895 0.306654 0.329391 -0.111324 -0.108671 0.250908 -0.076542 0.125281 -0.152391 -1.88201 -1.79166 -2 -1.88533 -0.875544 -0.706756 -1.26053 -1.06096 0.960453 0.888163 0.999493 0.934817 -0.323169 -0.592889 -0.532987 -0.845225 -0.179307 0.157439 -0.537695 -0.0592 0.361962 0.083035 0.465022 0.235442 0.947521 0.846466 0.999978 0.960453 -0.447823 -0.144289 -0.692478 -0.387206 -1.9011 -1.77544 -2 -1.92054 0.584757 0.564793 0.842746 0.838134 -0.978112 -1.3349 -0.947856 -1.50931 0.615088 0.303415 0.584757 0.343856 -1.71336 -1.90126 -1.47938 -1.55766 0.891173 0.936369 0.999025 0.993786 -1.16701 -0.894625 -1.40877 -1.14185 0.822873 0.720162 0.964215 0.782487 0.36834 0.542416 0.178035 0.218798 0.999978 0.960453 0.960917 0.999493 0.600389 0.784365 0.819932 0.929497 -0.31058 0.198303 -0.550743 -0.108671 -1.39919 -1.49646 -1.03478 -1.08472 -1.1988 -1.12285 -1.46071 -1.55355 0.79833 0.594988 0.651171 0.384732 0.925743 0.79833 0.835088 0.651171 0.74846 0.872443 0.647294 0.729916 0.639281 0.690167 0.306654 0.329391 0.999241 0.947519 0.973254 0.872443 0.221826 0.361962 0.581042 0.648241 0.531378 0.190219 0.324877 0.0933669 0.979542 0.819211 0.999943 0.919755 0.639281 0.615088 0.880629 0.857503 -0.0974009 -0.30792 -0.387206 -0.591522 0.857503 0.842746 0.984726 0.979079 0.97544 0.819932 0.996478 0.929497 0.486797 0.477859 0.125216 0.129752 0.704473 0.854841 0.429478 0.608976 -0.111324 -0.108671 -0.588164 -0.596165 0.395665 0.0511995 0.250908 -0.076542 0.615088 0.584757 0.857503 0.842746 -0.947856 -1.50931 -0.717732 -1.1127 -0.607589 -0.825386 -0.894625 -1.14185 0.97583 0.925743 0.947519 0.835088 0.876367 0.973254 0.74846 0.872443 0.57423 0.299881 0.738614 0.532773 -0.133943 0.321055 -0.233426 0.213579 -1.3349 -1.6274 -1.50931 -1.74313 0.771191 0.733092 0.453727 0.31619 0.340221 0.600389 0.101637 0.36834 0.166298 0.502646 -0.146112 0.291396 -1.1988 -0.767973 -1.12285 -0.735442 0.960883 0.982433 0.796346 0.863809 0.217183 0.130194 0.462378 0.470773 0.850134 0.712041 0.819932 0.542416 0.639281 0.306654 0.615088 0.303415 0.893056 0.902021 0.712073 0.709025 -0.621206 -0.231402 -0.688081 -0.259125 0.876771 0.92953 0.974284 0.990995 0.995704 0.97583 0.999241 0.947519 0.772956 0.735293 0.493872 0.470773 0.608976 0.771191 0.198303 0.453727 0.221826 -0.144289 0.361962 0.083035 0.764096 0.896423 0.87387 0.962946 0.941796 0.834786 0.999958 0.942488 0.310142 0.619998 0.238863 0.559532 0.82516 0.968729 0.762827 0.896398 -1.47938 -1.55766 -1.31735 -1.28956 0.955905 0.999025 0.998698 0.993786 0.796346 0.863809 0.501707 0.721166 0.754703 0.72164 0.433114 0.517852 0.94327 0.88007 0.817648 0.619998 -0.532987 -0.845225 -0.701011 -1.0688 -0.19244 -0.578212 0.178674 -0.112065 0.324877 0.0933669 0.0310927 -0.301519 0.876771 0.738614 0.92953 0.899762 0.166298 -0.146112 -0.0974009 -0.30792 -1.50931 -1.76483 -1.1127 -1.46457 0.476559 0.291468 0.459716 0.163978 0.560725 0.440911 0.279385 0.125281 -1.07849 -1.40618 -0.974563 -1.43679 0.962946 0.999241 0.985153 0.973254 -0.900985 -1.16621 -0.958235 -1.39182 0.668572 0.867099 0.512408 0.778161 -1.3349 -1.16701 -1.6274 -1.40877 0.995654 0.986265 0.902319 0.982568 -0.692478 -0.926954 -0.900985 -1.16621 0.101637 0.36834 -0.0739871 0.178035 -1.02163 -1.12285 -0.537695 -0.735442 -1.07849 -1.15168 -1.40618 -1.57427 0.310142 0.127481 0.619998 0.41848 -1.15599 -1.04076 -1.46895 -1.32042 0.82516 0.955905 0.968729 0.998698 0.9984 0.999983 0.92578 0.98635 0.989968 0.979079 0.993286 0.977248 0.324488 0.041798 0.594988 0.384732 0.982695 0.910316 0.998643 0.896398 0.87387 0.962946 0.86066 0.985153 -1.23256 -1.47938 -1.08846 -1.31735 0.889104 0.973192 0.876367 0.973254 0.198303 0.453727 -0.108671 0.31619 0.593624 0.505971 0.822873 0.720162 -0.076542 -0.478351 -0.152391 -0.45408 0.914228 0.981066 0.775937 0.90732 0.77977 0.935939 0.668572 0.867099 0.996281 0.998643 0.968729 0.896398 0.863809 0.893056 0.721166 0.712073 0.446768 0.712073 0.459716 0.709025 0.953261 0.850134 0.97544 0.819932 0.166516 0.493872 0.130194 0.470773 0.501707 0.721166 0.446768 0.712073 0.319107 0.221826 0.547682 0.581042 0.74846 0.647294 0.55692 0.401045 0.834786 0.698269 0.942488 0.920385 -1.6274 -1.90126 -1.74313 -1.91873 0.214316 -0.117963 0.168675 -0.186106 -1.50931 -1.74313 -1.76483 -1.91873 0.562664 0.465022 0.178674 0.235442 0.562664 0.178674 0.680263 0.394792 -1.55382 -1.7177 -1.76483 -1.89813 -1.55382 -1.36975 -1.7177 -1.64037 0.92578 0.98635 0.807787 0.927446 0.982433 0.984726 0.989968 0.979079 0.77977 0.57423 0.876771 0.738614 0.178674 -0.112065 0.394792 0.0264603 -1.13425 -1.30133 -1.42777 -1.64787 -1.40877 -1.14185 -1.55766 -1.28956 0.620291 0.324877 0.384028 0.0310927 0.77977 0.668572 0.57423 0.480043 0.989968 0.993286 0.893056 0.902021 0.817648 0.619998 0.676984 0.41848 -0.532987 -0.701011 -0.186106 -0.290547 -1.6274 -1.40877 -1.90126 -1.55766 0.221826 -0.0974009 -0.144289 -0.387206 -0.845225 -1.07642 -1.0688 -1.40195 0.987992 0.914228 0.925743 0.79833 0.319107 0.166298 0.221826 -0.0974009 0.89642