# vtk DataFile Version 3.0
#This file was generated by the deal.II library on 2025/2/17 at 14:21:17
ASCII
DATASET UNSTRUCTURED_GRID

POINTS 8216 double
-0.526313 -0.00362735 -0.850283
-0.578874 0.0658511 -0.812753
-0.490046 0.086006 -0.867443
-0.53531 0.132571 -0.834187
0.578263 -0.698471 0.421605
0.637246 -0.661063 0.396123
0.574613 -0.660523 0.48325
0.638688 -0.618835 0.457297
0.0669037 0.598465 -0.798351
-0.0196463 0.595596 -0.803044
0.0479154 0.661643 -0.748287
-0.0318717 0.656937 -0.753272
0.73314 -0.224156 0.642075
0.781126 -0.226401 0.581881
0.755962 -0.150205 0.63715
0.804367 -0.151437 0.574508
-0.913715 0.289737 -0.284918
-0.890474 0.364121 -0.272897
-0.883146 0.296659 -0.363383
-0.859694 0.374292 -0.347608
-0.754262 0.626123 -0.197632
-0.799835 0.56548 -0.201235
-0.768649 0.628524 -0.118898
-0.814869 0.564873 -0.130029
0.694717 -0.621748 0.361661
0.701228 -0.577615 0.417899
0.637246 -0.661063 0.396123
0.638688 -0.618835 0.457297
0.388553 -0.49469 0.777373
0.440363 -0.43359 0.786181
0.342952 -0.454401 0.822134
0.389477 -0.397098 0.831036
0.0423264 0.0734882 0.996397
0.126723 0.0681414 0.989595
0.0405388 0.187965 0.981339
0.130467 0.172692 0.976297
0.51682 0.274554 0.810874
0.582527 0.278182 0.763726
0.499759 0.344201 0.794837
0.566497 0.350312 0.745898
0.510807 -0.795861 -0.325085
0.495575 -0.769738 -0.40238
0.578718 -0.751672 -0.316347
0.564806 -0.72897 -0.386777
-0.0160953 -0.115642 0.993161
-0.0942005 -0.176662 0.979753
0.0176047 -0.209132 0.977729
-0.0580434 -0.245262 0.967718
-0.454382 -0.883664 -0.112584
-0.461292 -0.886707 -0.0309906
-0.524758 -0.842099 -0.124495
-0.524631 -0.850238 -0.0431006
0.429802 -0.320339 0.844188
0.415513 -0.234807 0.878757
0.34709 -0.323751 0.880178
0.336785 -0.245135 0.909112
-0.874108 0.478215 -0.0851183
-0.889572 0.456777 0.0040438
-0.831284 0.553086 -0.0553459
-0.845726 0.532315 0.0372604
0.524622 -0.734854 0.429838
0.578263 -0.698471 0.421605
0.508503 -0.70422 0.495479
0.574613 -0.660523 0.48325
-0.0154324 0.817665 0.575487
0.0141682 0.769357 0.638662
0.0631057 0.828112 0.556999
0.0931988 0.782513 0.61562
-0.0304393 -0.723684 -0.68946
-0.0519075 -0.675819 -0.735238
0.0327162 -0.696076 -0.717222
0.000184616 -0.665537 -0.746365
0.795697 0.174332 -0.580064
0.747034 0.205196 -0.632325
0.801935 0.25269 -0.541338
0.743579 0.298605 -0.598268
0.686937 -0.303453 -0.660329
0.641341 -0.355873 -0.679733
0.661143 -0.258797 -0.704211
0.598266 -0.303142 -0.741743
-0.649907 -0.515718 0.558262
-0.695038 -0.449162 0.561406
-0.67578 -0.552896 0.48747
-0.742866 -0.477995 0.468691
-0.742866 -0.477995 0.468691
-0.775115 -0.37967 0.505022
-0.805327 -0.445794 0.390789
-0.823634 -0.372692 0.427467
0.976908 0.213559 0.00655809
0.955029 0.296464 -0.00527247
0.97298 0.213459 0.08801
0.953933 0.284069 0.0965271
0.843669 0.231544 -0.484365
0.83504 0.324196 -0.444528
0.879624 0.220951 -0.42124
0.878823 0.289609 -0.379206
-0.617227 -0.241001 -0.748966
-0.650546 -0.288789 -0.702418
-0.660904 -0.176209 -0.729491
-0.696595 -0.225581 -0.681079
-0.449387 0.892964 0.0258236
-0.533101 0.84547 0.0313569
-0.459141 0.880609 0.117119
-0.527722 0.842366 0.10922
0.842827 -0.289136 0.45392
0.865301 -0.220824 0.449991
0.803621 -0.295958 0.516335
0.824679 -0.225198 0.518835
0.585619 -0.800186 0.129432
0.587964 -0.805798 0.0706232
0.638943 -0.749965 0.171188
0.645597 -0.759776 0.0771052
0.371848 0.0734882 -0.92538
0.361712 0.152828 -0.919678
0.448084 0.0724722 -0.891049
0.438382 0.153376 -0.885605
0.578718 -0.751672 -0.316347
0.564806 -0.72897 -0.386777
0.625749 -0.716326 -0.308733
0.636396 -0.680562 -0.363091
-0.684953 -0.122416 0.718229
-0.67554 -0.0451853 0.735937
-0.743403 -0.0979832 0.661627
-0.725781 -0.0199245 0.687637
-0.820276 -0.52499 0.22701
-0.857437 -0.483677 0.175667
-0.804191 -0.571227 0.164249
-0.84255 -0.527202 0.110306
0.0318565 0.717691 -0.695633
0.0479154 0.661643 -0.748287
-0.0445086 0.716945 -0.695708
-0.0318717 0.656937 -0.753272
-0.975945 -0.0592754 -0.209805
-0.983054 -0.102653 -0.151879
-0.983361 -0.016572 -0.180903
-0.993785 -0.0239367 -0.108712
0.902408 -0.359447 0.237609
0.873828 -0.426971 0.23264
0.921563 -0.355791 0.15535
0.891694 -0.432621 0.133117
-0.608449 -0.479457 0.632385
-0.649907 -0.515718 0.558262
-0.555413 -0.558069 0.616503
-0.597887 -0.576361 0.557081
-0.967571 0.241832 -0.0729712
-0.981789 0.187765 -0.0289016
-0.957936 0.286663 -0.0135266
-0.972908 0.228471 0.0353694
-0.739179 -0.293212 0.606334
-0.76054 -0.191429 0.620431
-0.794695 -0.298278 0.528669
-0.812485 -0.221741 0.539166
-0.0397624 0.611087 0.790564
-0.0942099 0.668479 0.73774
-0.112951 0.584761 0.803304
-0.177263 0.623233 0.761681
0.517277 0.0716586 -0.852813
0.448084 0.0724722 -0.891049
0.511564 0.154676 -0.845209
0.438382 0.153376 -0.885605
0.0327162 -0.696076 -0.717222
0.000184616 -0.665537 -0.746365
0.0997407 -0.649224 -0.754029
0.0178282 -0.623394 -0.781704
0.697793 0.281059 0.658855
0.755316 0.278688 0.593153
0.676462 0.353732 0.645967
0.719724 0.367255 0.58917
-0.361158 0.755282 0.546913
-0.299046 0.757322 0.580548
-0.322112 0.807957 0.493406
-0.249772 0.795671 0.551835
0.238748 -0.25921 0.935847
0.336785 -0.245135 0.909112
0.235862 -0.156355 0.959126
0.318842 -0.158685 0.93443
0.583949 -0.811749 -0.00823738
0.644047 -0.764981 -0.00263288
0.587964 -0.805798 0.0706232
0.645597 -0.759776 0.0771052
-0.0160953 -0.115642 0.993161
0.0176047 -0.209132 0.977729
0.0423264 -0.0734882 0.996397
0.0886334 -0.177581 0.980107
0.0381431 0.265398 0.963384
0.0449127 0.327457 0.943798
-0.0596059 0.27167 0.960543
-0.0363182 0.34569 0.937646
-0.721541 0.551847 0.418143
-0.709033 0.60981 0.354124
-0.76853 0.511856 0.383882
-0.769095 0.552196 0.321826
-0.600648 -0.799188 0.0228335
-0.528403 -0.847346 0.0528723
-0.626798 -0.772578 0.101231
-0.572127 -0.808848 0.135781
-0.865251 -0.108408 0.489478
-0.885115 -0.0770937 0.458942
-0.862818 -0.15631 0.480741
-0.894749 -0.141434 0.423581
-0.858804 -0.212105 -0.466334
-0.874353 -0.25397 -0.41353
-0.889658 -0.140794 -0.434379
-0.903922 -0.192548 -0.381904
-0.561388 -0.134211 0.816597
-0.484028 -0.148768 0.862314
-0.559277 -0.056303 0.827067
-0.491065 -0.0506055 0.869652
0.188669 -0.554305 -0.810648
0.11174 -0.587414 -0.801536
0.127147 -0.500651 -0.856261
0.0413667 -0.555457 -0.830516
0.0761213 -0.451128 -0.889207
-0.00110016 -0.484116 -0.875003
0.0317126 -0.398181 -0.916758
-0.0357654 -0.424632 -0.904659
0.275165 -0.343779 0.897831
0.34709 -0.323751 0.880178
0.238748 -0.25921 0.935847
0.336785 -0.245135 0.909112
-0.308131 0.476834 0.823216
-0.232031 0.472097 0.850462
-0.287752 0.543725 0.788392
-0.208087 0.541883 0.814286
-0.581096 -0.0685836 -0.81094
-0.622061 0.00125211 -0.782967
-0.526313 -0.00362735 -0.850283
-0.578874 0.0658511 -0.812753
0.843514 0.455838 -0.284069
0.882213 0.401375 -0.246167
0.843238 0.39787 -0.361454
0.880957 0.348423 -0.320181
0.178715 0.871524 0.456626
0.163311 0.901158 0.401552
0.11138 0.872525 0.475705
0.0954165 0.907514 0.409041
0.309863 -0.95015 -0.0346324
0.272531 -0.957551 -0.0939313
0.373173 -0.925814 -0.060083
0.337089 -0.929987 -0.14661
0.549435 0.830508 0.0915321
0.516809 0.855658 0.0275307
0.50922 0.852184 0.120325
0.454007 0.886177 0.0925626
-0.0586167 0.934924 -0.349974
-0.0126244 0.953686 -0.30054
0.0177954 0.919774 -0.392044
0.0321823 0.943692 -0.329255
0.484737 -0.653603 0.581235
0.407501 -0.72466 0.555708
0.508503 -0.70422 0.495479
0.443909 -0.753594 0.48481
-0.867143 -0.439446 0.234415
-0.898165 -0.395064 0.192936
-0.857437 -0.483677 0.175667
-0.891089 -0.43531 0.12832
0.217624 -0.260527 -0.94062
0.15419 -0.308698 -0.938579
0.165113 -0.165996 -0.972205
0.0939825 -0.264239 -0.959867
0.661143 -0.258797 -0.704211
0.643735 -0.218104 -0.73351
0.704998 -0.226798 -0.671967
0.673472 -0.162526 -0.721125
0.0552372 0.878658 -0.474245
0.0177954 0.919774 -0.392044
0.134502 0.88562 -0.444506
0.110641 0.923152 -0.36817
0.108214 0.723421 -0.681874
0.0934016 0.778319 -0.620883
0.181583 0.724293 -0.665152
0.166923 0.776195 -0.607995
-0.942916 -0.262821 0.204534
-0.923399 -0.246492 0.294237
-0.963244 -0.190333 0.189563
-0.951213 -0.155758 0.266335
-0.529346 -0.833208 0.159867
-0.524654 -0.820242 0.227906
-0.572127 -0.808848 0.135781
-0.595926 -0.77431 0.212875
-0.298849 -0.150373 0.942379
-0.226794 -0.14764 0.962687
-0.289773 -0.0728917 0.954316
-0.219349 -0.101334 0.97037
-0.0279844 0.700132 0.713465
0.0414694 0.721648 0.691017
-0.0594281 0.747116 0.662032
0.0141682 0.769357 0.638662
-0.768649 0.628524 -0.118898
-0.814869 0.564873 -0.130029
-0.782773 0.620975 -0.040688
-0.831284 0.553086 -0.0553459
-0.600648 -0.799188 0.0228335
-0.651898 -0.758306 -0.00116102
-0.589231 -0.806036 -0.0558002
-0.642441 -0.76333 -0.0677999
0.517277 0.0716586 -0.852813
0.511564 0.154676 -0.845209
0.58979 0.0834668 -0.803232
0.58155 0.155518 -0.798507
0.215672 -0.0773571 -0.973397
0.101062 -0.0769415 -0.9919
0.169001 -4.13933e-17 -0.985616
0.0848059 -2.07715e-17 -0.996397
-0.641716 0.735532 0.217239
-0.605151 0.786646 0.122394
-0.709401 0.688016 0.152915
-0.683555 0.72511 0.0834701
0.447973 0.268288 0.852844
0.51682 0.274554 0.810874
0.431796 0.333404 0.83809
0.499759 0.344201 0.794837
-0.459141 0.880609 0.117119
-0.527722 0.842366 0.10922
-0.463532 0.866429 0.185576
-0.520211 0.835591 0.176547
0.288659 -0.0853657 -0.953619
0.251978 -6.17168e-17 -0.967733
0.371848 -0.0734882 -0.92538
0.33314 -8.15957e-17 -0.942877
-0.348828 0.931534 -0.102778
-0.289083 0.95564 -0.0564227
-0.301418 0.939615 -0.162084
-0.241705 0.963493 -0.115149
-0.163518 -0.364784 0.916621
-0.089712 -0.335305 0.937829
-0.200974 -0.297006 0.933486
-0.132642 -0.273147 0.952784
0.0552372 0.878658 -0.474245
0.134502 0.88562 -0.444506
0.0771907 0.830952 -0.550963
0.166945 0.832263 -0.528647
0.0423264 0.0734882 0.996397
0.0405388 0.187965 0.981339
-0.0633339 0.0818432 0.994631
-0.0705109 0.192332 0.978794
-0.806613 0.550093 0.216271
-0.826514 0.486515 0.283155
-0.760228 0.595163 0.260451
-0.769095 0.552196 0.321826
0.484737 -0.653603 0.581235
0.404656 -0.627559 0.665149
0.407501 -0.72466 0.555708
[...]
POINT_DATA 8216
SCALARS phi double 1
LOOKUP_TABLE default
-1.16894 -0.981704 -1.25737 -1.0876 0.466748 0.529261 0.299409 0.372638 -0.912091 -0.93464 -0.679799 -0.702254 -0.236782 -0.0157548 -0.217882 0.00982004 0.756466 0.776582 0.603859 0.637506 0.882825 0.878514 0.95759 0.949277 0.607604 0.47608 0.529261 0.372638 -0.812925 -0.854239 -1.02771 -1.07186 -1.97842 -1.93789 -1.88908 -1.85947 -0.972552 -0.749833 -0.8953 -0.66909 0.682959 0.514271 0.699773 0.551211 -1.9591 -1.87975 -1.86786 -1.80943 0.961974 0.997119 0.953503 0.994427 -1.13796 -1.31664 -1.32414 -1.47945 0.978265 0.999951 0.990811 0.995835 0.445719 0.466748 0.263503 0.299409 0.00644481 -0.223668 0.0692557 -0.136963 -0.426067 -0.621723 -0.543224 -0.671183 -0.0094227 -0.199504 0.120858 -0.0737751 -0.308104 -0.38611 -0.487741 -0.650549 0.0650323 0.0544711 0.287119 0.340986 0.340986 0.234858 0.541851 0.451815 0.999871 0.999917 0.976763 0.972048 0.296171 0.407185 0.467672 0.568609 -0.682849 -0.480171 -0.596469 -0.391607 0.997999 0.99705 0.958849 0.964213 0.381871 0.392525 0.200196 0.19243 0.949742 0.985037 0.912084 0.982164 -1.56898 -1.53742 -1.38191 -1.35289 0.699773 0.551211 0.714052 0.604494 -0.547559 -0.624811 -0.313252 -0.418535 0.8454 0.907423 0.919067 0.963497 -0.451714 -0.679799 -0.452028 -0.702254 0.867946 0.930799 0.901822 0.964545 0.830626 0.837636 0.927599 0.946839 -0.199733 0.0650323 -0.140226 0.068982 0.984026 0.997494 0.999451 0.996247 -0.102923 -0.154803 0.161529 0.127902 -0.874975 -0.632783 -0.935891 -0.740474 -1.18187 -1.38191 -1.14313 -1.35289 -0.543224 -0.671183 -0.705679 -0.833185 -0.302271 -0.0554914 -0.251819 -0.041364 0.102659 -0.0111076 0.269651 0.0864344 -1.62743 -1.47945 -1.75977 -1.61948 0.999796 0.999979 0.985037 0.982164 -1.9591 -1.86786 -1.97842 -1.88183 -1.78433 -1.67226 -1.76793 -1.63754 0.475469 0.623788 0.557905 0.689283 0.998436 0.991614 0.969257 0.94469 0.281235 0.368116 0.306664 0.461736 0.347599 0.48698 0.433944 0.562448 -1.00049 -1.23075 -1.05212 -1.26888 -0.971449 -0.927378 -1.19955 -1.06927 -1.37207 -1.29689 -1.52134 -1.45522 -1.4183 -1.32414 -1.62743 -1.47945 -1.03305 -1.16986 -0.864684 -0.989186 -0.97287 -0.839114 -1.16894 -0.981704 0.757914 0.818205 0.608052 0.692452 0.374478 0.516268 0.321114 0.498056 0.996402 0.973531 0.98917 0.935517 0.974866 0.997726 0.956565 0.974297 0.632554 0.729027 0.538905 0.674773 -0.0135013 0.0735665 0.263503 0.294878 0.835149 0.888327 0.907423 0.950602 -1.6543 -1.64279 -1.83555 -1.76404 -0.487741 -0.614109 -0.35462 -0.560064 0.325274 0.538905 0.407243 0.593352 -0.394856 -0.156487 -0.327283 -0.108974 0.874498 0.740273 0.892198 0.787198 0.923327 0.844177 0.94469 0.864053 -1.66423 -1.7803 -1.73216 -1.82485 -0.527096 -0.432512 -0.31486 -0.223668 0.95759 0.949277 0.995033 0.990811 0.998436 0.999996 0.990659 0.98621 -1.18187 -1.14313 -0.935544 -0.912841 -1.8425 -1.9516 -1.91432 -1.97842 0.858422 0.955059 0.929851 0.979098 -1.18203 -0.972552 -1.10718 -0.8953 0.958849 0.964213 0.896685 0.906493 -1.72817 -1.80952 -1.56898 -1.66705 0.96831 0.990449 0.921187 0.960222 -1.52058 -1.63857 -1.61419 -1.72339 0.325274 0.407243 0.08932 0.161597 -1.97842 -1.88908 -1.96787 -1.87411 0.859681 0.759469 0.796496 0.689283 -0.0135013 -0.327269 0.0735665 -0.147444 0.216645 0.0828661 0.0713245 -0.072135 -0.676265 -0.645656 -0.445871 -0.413129 0.830626 0.927599 0.830614 0.925009 0.995033 0.990811 0.996804 0.995835 -1.56348 -1.40497 -1.46072 -1.291 -0.745787 -0.954164 -0.870582 -1.03671 0.407243 0.492554 0.161597 0.340211 0.766984 0.68064 0.863658 0.814234 -0.362046 -0.205909 -0.47474 -0.30736 0.999979 0.99994 0.982164 0.979316 -1.02771 -1.07186 -1.23002 -1.2106 0.863921 0.845337 0.935517 0.92671 0.480846 0.498056 0.653874 0.65549 0.960142 0.973162 0.89336 0.911999 0.98315 0.978636 0.956654 0.924995 -1.83555 -1.76404 -1.90632 -1.83211 -1.40232 -1.53387 -1.28811 -1.41135 -1.02771 -1.23002 -0.999215 -1.2246 -1.8425 -1.83555 -1.9516 -1.90632 0.993856 0.981902 0.972588 0.946269 -1.5622 -1.66705 -1.73963 -1.80952 0.975847 0.988054 1 0.999858 -0.547559 -0.313252 -0.472672 -0.154803 0.858422 0.792728 0.717639 0.678382 -1.98155 -2 -1.97157 -1.96787 -0.0109714 -0.102923 0.234858 0.161529 -0.0983411 0.00399203 -0.290018 -0.17741 0.892198 0.787198 0.917512 0.829265 -1.41909 -1.58499 -1.46782 -1.6436 0.153288 0.0735665 -0.0561842 -0.147444 -1.16257 -1.28646 -1.37656 -1.49101 -1.97313 -1.97555 -1.97338 -2 0.937245 0.979316 0.898774 0.976727 0.994981 0.997999 0.9781 0.994864 -0.778851 -0.72722 -0.958563 -0.999215 0.980848 0.974394 0.999951 0.995835 -1.16257 -1.05176 -0.980422 -0.819462 0.896868 0.946234 0.920353 0.973044 -0.0379269 -0.149364 0.0918901 -0.00248744 -1.07142 -1.19339 -0.889531 -1.01312 0.538905 0.674773 0.593352 0.727749 -1.5622 -1.73963 -1.44882 -1.61948 -0.200709 -0.419926 -0.323511 -0.59115 0.0238033 0.112542 -0.200709 -0.0826583 0.977952 0.920353 0.99854 0.973044 0.433051 0.269651 0.330788 0.0864344 0.976072 0.999944 0.970367 0.999332 -1.51627 -1.70009 -1.60455 -1.73443 0.840131 0.729807 0.835144 0.732414 -1.4995 -1.35701 -1.40497 -1.19215 0.918823 0.976763 0.925058 0.972048 -0.743856 -0.954773 -0.628473 -0.830559 0.170243 0.130293 0.336044 0.29964 -1.38776 -1.2405 -1.34063 -1.16894 -0.685683 -0.624811 -0.87073 -0.834433 -0.590385 -0.707065 -0.43804 -0.544508 0.982271 0.946839 0.998442 0.994106 -1.68991 -1.78187 -1.59022 -1.66158 0.216645 0.39888 0.0828661 0.232722 -0.686821 -0.528426 -0.811452 -0.640978 -1.97338 -1.9516 -1.91626 -1.90632 -0.281109 -0.445871 -0.199504 -0.413129 -0.178191 0.0647353 -0.0607658 0.175306 0.926068 0.83509 0.93434 0.852602 0.981944 0.949938 0.99615 0.990771 0.71097 0.796281 0.632554 0.729027 0.858422 0.717639 0.840131 0.729807 0.0544711 -0.0109714 0.340986 0.234858 -0.883935 -1.00568 -0.789963 -0.831281 0.963653 0.906656 0.939287 0.878747 0.776582 0.814933 0.637506 0.688166 -0.0866858 -0.224043 -0.00104649 -0.200804 -0.0607658 0.0579723 0.175306 0.291497 0.0828661 -0.0456495 -0.072135 -0.205909 0.765573 0.896682 0.748731 0.809306 -1.55988 -1.6543 -1.66045 -1.83555 0.275175 0.0511166 0.0445955 -0.118807 -1.56898 -1.38104 -1.49151 -1.30087 -0.354981 -0.18011 -0.461353 -0.366622 0.122694 0.298105 -0.0538371 0.0933999 -0.309473 -0.563662 -0.178175 -0.447208 -1.93589 -1.96687 -1.86245 -1.85655 0.338723 0.367319 0.1377 0.192004 -0.0607658 -0.309473 0.0579723 -0.178175 -0.374232 -0.216884 -0.228261 -0.0387682 0.725048 0.829205 0.774817 0.898774 0.0623005 0.173856 -0.134237 -0.0132938 0.622838 0.72513 0.74501 0.827831 0.112542 0.281351 0.219892 0.420798 -0.367204 -0.206781 -0.162395 -0.0136938 0.0579723 0.186331 0.291497 0.382731 -1.59269 -1.68021 -1.64279 -1.76404 0.469804 0.632563 0.532355 0.678628 0.314991 0.47608 0.439449 0.62634 0.315699 0.252796 0.115885 0.0555847 0.982956 0.958596 0.99862 0.991605 -1.19955 -1.06927 -1.37207 -1.29689 0.290516 0.427374 0.109688 0.2686 -0.870582 -1.03671 -0.960681 -1.12358 0.967279 0.948183 0.89154 0.861623 0.186331 0.296171 0.382731 0.467672 -1.52058 -1.37045 -1.63857 -1.52977 -1.16421 -1.08618 -1.38104 -1.30087 -1.76367 -1.72294 -1.6328 -1.64864 0.994076 0.99967 0.983332 0.999768 -1.28901 -1.45213 -1.33644 -1.51242 -0.181192 -0.0135013 -0.110484 0.0961086 -1.00246 -1.21717 -1.08618 -1.30087 0.679702 0.793424 0.71068 0.793348 -1.14874 -1.3153 -1.01911 -1.17899 0.0445955 -0.118807 -0.162395 -0.314191 0.426935 0.431763 0.235956 0.232749 -1.45809 -1.30992 -1.33644 -1.19339 -0.438499 -0.690351 -0.472672 -0.725919 0.426935 0.235956 0.437718 0.252425 0.896952 0.767123 0.839872 0.724739 0.00448225 -0.0157148 -0.221249 -0.323511 -1.16421 -0.926095 -1.08618 -0.852883 0.469804 0.532355 0.268532 0.410974 0.982444 0.921002 0.951807 0.890676 -1.87411 -1.76793 -1.81141 -1.70293 0.540261 0.706942 0.553961 0.723522 -1.91626 -1.90632 -1.81917 -1.83211 0.839938 0.827713 0.753063 0.698891 0.435155 0.569461 0.249308 0.465015 0.896952 0.839872 0.939887 0.921002 0.630689 0.578983 0.792513 0.740273 0.652723 0.50659 0.730459 0.59996 0.483345 0.57996 0.628701 0.710192 0.995094 0.999978 0.999756 0.990658 0.488337 0.56591 0.348728 0.441042 -0.913938 -1.12473 -1.00246 -1.21717 0.97523 0.976309 0.913182 0.91674 -0.417153 -0.558202 -0.526972 -0.699504 -0.367204 -0.162395 -0.533367 -0.314191 0.489721 0.390453 0.404147 0.24414 0.360373 0.553961 0.371514 0.558203 0.137684 -0.0373755 0.00371529 -0.18011 -0.438499 -0.472672 -0.102923 -0.154803 0.681363 0.630689 0.770707 0.792513 -1.76793 -1.63754 -1.70293 -1.56348 0.553961 0.723522 0.558203 0.753063 0.975982 0.917512 0.989227 0.946208 -0.140124 -0.21787 0.0202694 -0.0319919 0.961839 0.975982 0.995094 0.999978 0.0238033 -0.200709 -0.0157148 -0.323511 0.496677 0.43969 0.652723 0.50659 0.594426 0.65949 0.466748 0.529261 0.59859 0.730735 0.700593 0.777713 0.821322 0.872029 0.927646 0.932543 0.488337 0.348728 0.376338 0.2235 0.7959 0.791741 0.656246 0.652351 0.872029 0.827713 0.932543 0.926248 0.900243 0.818719 0.940898 0.86454 0.57996 0.657219 0.710192 0.775521 -0.623288 -0.563757 -0.409931 -0.376517 0.0900689 -0.00640138 0.295078 0.207729 0.431763 0.469804 0.232749 0.268532 0.946208 0.874488 0.97375 0.917452 0.374081 0.475469 0.176317 0.356794 0.925256 0.907934 0.834821 0.810784 0.810784 0.7959 0.675802 0.656246 0.97523 0.913182 0.978574 0.917769 0.290503 0.39195 0.0647353 0.175306 -0.110484 0.0961086 0.00371529 0.195372 0.540261 0.520057 0.706942 0.687513 -1.02453 -1.22545 -0.943229 -1.2085 0.686709 0.823579 0.755798 0.853914 0.496677 0.332128 0.43969 0.311533 0.427374 0.437718 0.2686 0.252425 -0.791847 -0.674557 -0.97287 -0.839114 0.667068 0.570778 0.484073 0.447798 0.0398049 0.201483 0.176917 0.318441 0.810758 0.87958 0.730459 0.81881 0.948183 0.925256 0.861623 0.834821 0.318441 0.481446 0.396095 0.525112 0.371514 0.366376 0.228926 0.180861 0.99913 0.995952 0.986612 0.994106 0.706942 0.687513 0.841187 0.824426 0.0398049 0.176917 -0.100803 0.0544867 -0.534362 -0.386428 -0.334781 -0.212928 0.0547729 0.287955 0.00448225 0.178129 -0.913938 -0.650549 -0.819843 -0.661273 -0.883935 -0.721161 -1.0022 -0.818049 -1.31215 -1.15838 -1.43514 -1.28675 0.958185 0.983593 0.926962 0.978265 0.992068 0.97375 0.954646 0.917452 0.411239 0.224907 0.390453 0.24414 0.338265 0.484073 0.235389 0.447798 0.275175 0.338265 0.0511166 0.235389 0.935641 0.887046 0.87958 0.81881 0.606742 0.541549 0.762172 0.71866 -1.43514 -1.28675 -1.53308 -1.40536 0.900243 0.862488 0.818719 0.784922 0.0144377 0.232749 -0.0399697 0.268532 -0.778851 -0.592608 -0.72722 -0.484337 0.353501 0.161476 0.40183 0.222857 -0.674557 -0.539452 -0.839114 -0.686821 -0.529206 -0.624887 -0.315468 -0.365784 0.954646 0.893739 0.980891 0.938387 -0.875952 -0.640638 -0.889337 -0.601281 0.320919 0.396095 0.525227 0.525112 0.814933 0.880239 0.875869 0.926962 0.40183 0.222857 0.43748 0.257825 -0.226459 -0.407844 -0.100803 -0.260325 -0.778851 -0.958563 -0.592608 -0.864476 0.360373 0.371514 0.11998 0.228926 -0.577273 -0.40888 -0.407844 -0.260325 0.109688 0.2686 0.0564821 0.252425 0.521271 0.461736 0.635485 0.628701 0.374081 0.28135 0.499752 0.503322 -0.839114 -0.686821 -0.981704 -0.811452 -0.698452 -0.819843 -0.473992 -0.661273 0.934681 0.841187 0.923284 0.824426 0.520057 0.473427 0.687513 0.65098 0.74501 0.827831 0.899676 0.917557 0.643467 0.675479 0.775898 0.840127 -0.226459 -0.100803 -0.0431804 0.0544867 0.92951 0.989122 0.931142 0.968927 -1.0022 -0.818049 -1.10786 -0.903541 -0.539452 -0.391285 -0.686821 -0.528426 -0.958563 -1.19211 -0.864476 -1.13799 -1.8041 -1.78187 -1.88462 -1.89415 0.978574 0.917769 0.982778 0.927646 0.976176 0.909065 0.973765 0.905471 -0.875952 -0.889337 -1.13796 -1.0585 0.479702 0.633851 0.43748 0.601534 -0.889233 -0.791847 -1.07382 -0.97287 -1.8041 -1.88462 -1.72339 -1.77748 0.828987 0.856392 0.68538 0.71866 -0.366525 -0.227649 -0.539452 -0.391285 0.0534614 0.0638671 0.266712 0.272339 -1.68367 -1.6626 -1.50623 -1.48364 -0.226619 -0.388911 -0.0538371 -0.20571 0.00448225 0.178129 -0.0157148 0.249308 -0.719256 -0.835141 -0.878631 -1.01122 -1.68991 -1.6626 -1.78187 -1.80424 -0.366525 -0.17741 -0.227649 -0.0513478 -0.924605 -0.835141 -0.720018 -0.638572 -1.19211 -1.43204 -1.13799 -1.30176 0.153288 0.381622 0.0735665 0.294878 0.610354 0.643467 0.735389 0.775898 0.858418 0.922961 0.92947 0.949702 0.999979 0.978574 0.99994 0.982778 -1.26619 -1.1612 -1.10424 -1.01122 -1.50623 -1.35294 -1.6115 -1.47248 -0.227649 -0.0513478 -0.0796508 0.0865552 0.127174 0.11998 -0.100783 -0.149606 -0.546045 -0.698452 -0.362107 -0.473992 0.675479 0.691054 0.840127 0.831083 -1.00137 -0.924605 -0.784197 -0.720018 -1.78187 -1.80424 -1.89415 -1.87987 -0.713028 -0.884765 -0.586667 -0.733658 0.126662 0.253999 -0.0513478 0.0865552 -1.68367 -1.50623 -1.7066 -1.6115 0.289817 0.403325 0.126662 0.253999 -1.40232 -1.28811 -1.26619 -1.1612 -1.0169 -1.10561 -1.22544 -1.26901 0.0238033 -0.0157148 0.183747 0.249308 -1.35701 -1.21444 -1.19215 -1.11915 0.878057 0.802192 0.895604 0.78844 0.427374 0.620956 0.437718 0.612842 0.889798 0.764111 0.865468 0.797672 0.403325 0.514169 0.253999 0.376338 0.915225 0.828987 0.878057 0.802192 -0.555722 -0.784197 -0.511715 -0.720018 0.00399203 0.126662 -0.17741 -0.0513478 0.994596 1 0.994596 0.978382 -1.44746 -1.57117 -1.40232 -1.53387 -1.7066 -1.6115 -1.76801 -1.6889 0.940586 0.98621 0.945754 0.986736 0.885033 0.884194 0.74987 0.76726 0.633851 0.688646 0.764111 0.797672 -0.52431 -0.713028 -0.420041 -0.586667 -0.204609 -0.21436 0.0432262 0.0252604 -1.85655 -1.83541 -1.73571 -1.68129 -0.586667 -0.733658 -0.432901 -0.557236 -1.57117 -1.73571 -1.53387 -1.68129 -0.190275 -0.429575 -0.194 -0.443554 -1.22462 -1.10486 -1.10678 -0.925491 -1.10486 -1.00749 -0.925491 -0.828438 -0.865092 -1.0169 -1.06609 -1.22544 -0.865092 -1.06609 -0.833185 -1.06927 0.840127 0.831083 0.938448 0.928612 -0.555722 -0.511715 -0.325061 -0.311432 0.882602 0.811782 0.919191 0.838206 0.809306 0.885033 0.702619 0.74987 -1.1101 -1.06353 -0.883519 -0.837275 0.650837 0.756626 0.764762 0.8454 -1.00137 -0.784197 -1.06353 -0.837275 -0.204609 0.0432262 -0.156487 0.08932 -0.0970976 -0.325061 -0.108613 -0.311432 -1.53107 -1.42604 -1.4995 -1.35701 0.882602 0.913278 0.757914 0.818205 -0.0760123 0.204626 -0.152499 0.0346898 0.938448 0.928612 0.974154 0.980791 -1.72817 -1.8425 -1.80952 -1.91432 0.699788 0.853366 0.645359 0.806937 0.919191 0.936615 0.97755 0.98279 0.853366 0.950964 0.806937 0.886569 0.25786 0.325274 0.0432262 0.08932 0.72513 0.627762 0.799064 0.725002 0.996699 0.990724 0.976671 0.951963 0.889798 0.865468 0.958824 0.917688 0.9985 0.992526 0.999923 0.979098 -0.453933 -0.359765 -0.66909 -0.571407 0.818205 0.881403 0.692452 0.770937 0.949742 0.912084 0.92947 0.853786 -0.571462 -0.38946 -0.388911 -0.20571 0.593409 0.674685 0.710175 0.769514 -1.46689 -1.29692 -1.43429 -1.2157 -0.359765 -0.246801 -0.571407 -0.392504 -1.07416 -1.28269 -1.05451 -1.26278 0.912084 0.829205 0.853786 0.767674 0.990724 0.955055 0.951963 0.933537 -0.333986 -0.464642 -0.132768 -0.239289 0.884194 0.874453 0.76726 0.760486 -1.26278 -1.45889 -1.19179 -1.3875 -0.180125 0.0555847 -0.21436 0.0252604 -1.46687 -1.35672 -1.46689 -1.29692 0.899163 0.879271 0.955055 0.933537 -0.571407 -0.392504 -0.647235 -0.38946 0.548773 0.650837 0.688646 0.764762 -0.333986 -0.132768 -0.224136 -0.0460731 0.771289 0.686156 0.641662 0.553271 -1.50622 -1.65865 -1.48681 -1.66423 0.99693 0.9993 0.963719 0.975128 0.630987 0.753744 0.588162 0.699602 -1.19179 -1.3875 -1.0803 -1.27538 0.935212 0.867204 0.899163 0.807985 0.641662 0.553271 0.484475 0.381622 0.780333 0.651504 0.867204 0.807985 0.33803 0.484475 0.153288 0.381622 -0.0677764 -0.224136 0.0743853 -0.0460731 -1.43204 -1.44354 -1.6328 -1.63173 0.620956 0.76726 0.612842 0.760486 -1.76367 -1.6328 -1.77377 -1.63173 -0.977221 -0.868804 -0.782396 -0.653041 -1.42604 -1.319 -1.35701 -1.21444 -1.50622 -1.48759 -1.65865 -1.61419 -1.78625 -1.86721 -1.668 -1.81141 -0.374232 -0.464344 -0.601281 -0.707495 -1.53107 -1.51736 -1.42604 -1.319 0.846889 0.76013 0.753744 0.699602 -1.21444 -1.05821 -1.11915 -0.917778 -1.66771 -1.64512 -1.51736 -1.43429 0.89154 0.861623 0.76013 0.733773 0.996215 0.99693 0.962973 0.963719 -0.464642 -0.653041 -0.239289 -0.516424 -1.07382 -0.97287 -1.2405 -1.16894 -0.592608 -0.380569 -0.484337 -0.304001 -0.0677764 0.156064 -0.0295083 0.128984 0.110497 0.282349 0.0325259 0.151601 0.232217 0.129309 0.0903004 -0.0554914 -1.45889 -1.668 -1.3875 -1.55787 0.69317 0.610415 0.56476 0.482746 -0.374232 -0.601281 -0.216884 -0.366622 -0.226619 -0.0538371 -0.0692929 0.0933999 -0.138948 -0.0561842 -0.304001 -0.147444 -1.05821 -0.894798 -0.917778 -0.725769 0.591824 0.385433 0.584018 0.446196 0.610415 0.525195 0.482746 0.405275 0.928091 0.986612 0.946839 0.994106 -0.64573 -0.917778 -0.534362 -0.725769 0.643467 0.484648 0.675479 0.50599 0.0359472 0.153288 -0.138948 -0.0561842 0.485714 0.593409 0.380993 0.445057 -0.353891 -0.428488 -0.597253 -0.667072 -1.34439 -1.22545 -1.41488 -1.28958 -1.97842 -1.97842 -2 -1.96787 0.39195 0.290314 0.175306 0.0637104 -0.226619 -0.0692929 -0.386428 -0.212928 -1.25704 -1.04932 -1.18203 -0.972552 0.878747 0.762172 0.856392 0.71866 0.824082 0.928091 0.837636 0.946839 0.824082 0.837636 0.694697 0.74201 -0.227618 -0.0530054 -0.359765 -0.246801 -0.0992928 0.0903004 -0.17604 -0.0554914 0.137684 0.269696 -0.0373755 0.109883 -0.750289 -0.682849 -0.967019 -0.889233 0.394332 0.218877 0.269696 0.109883 0.969257 0.889798 0.988951 0.958824 0.982444 0.951807 0.997265 0.991614 -0.184943 0.0341085 -0.179069 0.0392312 0.991088 0.998442 0.995952 0.994106 0.312596 0.350813 0.116825 0.162416 -1.0803 -1.27538 -0.954773 -1.14874 -0.184943 -0.179069 -0.41562 -0.41021 0.0180107 0.00711378 0.224907 0.24414 -0.0692929 0.0857463 -0.212928 -0.0307478 0.72513 0.799064 0.827831 0.874723 -1.28646 -1.05928 -1.37963 -1.16356 0.949742 0.92947 0.985037 0.985662 0.996215 0.999355 0.999402 0.993946 0.997646 0.99862 0.997393 0.991605 -1.04932 -0.824396 -0.972552 -0.749833 -0.913895 -0.944969 -0.690351 -0.725919 -1.48364 -1.41178 -1.31913 -1.25737 -0.152494 0.109688 -0.155773 0.0564821 -0.417153 -0.221249 -0.558202 -0.323511 0.961312 0.899676 0.973655 0.917557 0.394332 0.269696 0.55485 0.439449 -0.271038 -0.353891 -0.506442 -0.597253 0.998094 0.996863 0.950964 0.965935 -0.239289 -0.169748 0.0534614 0.0638671 0.990134 0.974154 0.999391 0.980791 -0.167205 0.0511166 0.0458446 0.235389 0.473427 0.391585 0.65098 0.584102 0.725048 0.65949 0.829205 0.767674 0.946234 0.957684 0.973044 0.990355 0.504186 0.404147 0.500799 0.341697 0.231857 0.0857463 0.349987 0.235425 -0.0970976 0.116825 -0.0737751 0.162416 -0.451714 -0.452028 -0.204609 -0.21436 0.997683 0.963497 0.999421 0.988496 0.183747 0.249308 0.281351 0.465015 0.525195 0.417364 0.405275 0.350561 0.974655 0.999166 0.986746 0.997683 -1.18203 -1.10718 -1.35672 -1.29692 -1.34439 -1.35097 -1.22545 -1.2085 -1.48681 -1.66423 -1.46084 -1.58391 -0.721161 -0.506442 -0.818049 -0.597253 0.958608 0.993125 0.974655 0.999166 0.97755 0.98279 0.999703 0.999936 0.939544 0.864011 0.881403 0.770937 0.971998 0.998097 0.99009 0.999273 0.567811 0.401074 0.496677 0.332128 0.896682 0.930763 0.809306 0.885033 0.945754 0.986736 0.958608 0.993125 -0.868804 -1.0803 -0.743856 -0.954773 -0.967019 -0.889233 -1.15986 -1.07382 0.232217 0.367319 0.366703 0.499774 -0.837862 -0.943229 -0.972199 -1.2085 0.958185 0.985383 0.983593 0.998393 0.837416 0.810326 0.909065 0.905471 0.986693 0.99966 0.991088 0.998442 0.804368 0.89336 0.823579 0.911999 0.748522 0.792728 0.796496 0.87037 0.474855 0.492631 0.57996 0.657219 0.928612 0.921604 0.980791 0.99009 -0.650718 -0.633354 -0.43704 -0.41021 0.912084 0.937245 0.829205 0.898774 0.605374 0.559555 0.755792 0.714262 -0.0692929 0.0933999 0.0857463 0.235425 -1.98155 -1.97157 -1.90718 -1.88327 0.688166 0.651236 0.493753 0.500799 0.704487 0.828056 0.699788 0.853366 0.392018 0.184522 0.43689 0.232669 0.976176 0.973765 0.999999 0.999782 0.973162 0.980919 0.911999 0.931063 0.92951 0.931142 0.829318 0.887023 0.964274 0.979874 0.922306 0.963573 0.559555 0.492554 0.714262 0.66109 -0.868804 -0.743856 -0.653041 -0.516424 0.578983 0.521271 0.740273 0.635485 0.570778 0.59996 0.447798 0.409136 -0.0781785 -0.055788 0.0821366 0.